<?xml version="1.0" encoding="UTF-8"?>

<!-- generated on 03/07/19 16:53:04 by Eclipse SUMO Version 1.0.1
<configuration xmlns:xsi="http://www.w3.org/2001/XMLSchema-instance" xsi:noNamespaceSchemaLocation="http://sumo.dlr.de/xsd/sumoConfiguration.xsd">

    <input>
        <net-file value="./Project/ramp.net.xml"/>
        <route-files value="./Project/ramp.rou.xml"/>
        <additional-files value="./Project/ramp.add.xml"/>
    </input>

    <time>
        <begin value="0"/>
        <end value="10000"/>
    </time>

    <report>
        <verbose value="true"/>
        <no-step-log value="true"/>
    </report>

    <traci_server>
        <remote-port value="27163"/>
    </traci_server>

    <random_number>
        <seed value="1727101619"/>
    </random_number>

    <gui_only>
        <quit-on-end value="true"/>
        <start value="true"/>
    </gui_only>

</configuration>
-->

<detector xmlns:xsi="http://www.w3.org/2001/XMLSchema-instance" xsi:noNamespaceSchemaLocation="http://sumo.dlr.de/xsd/det_e2_file.xsd">
   <interval begin="0.00" end="60.00" id="mainline_up_0_2" sampledSeconds="301.96" nVehEntered="19" nVehLeft="4" nVehSeen="19" meanSpeed="19.62" meanTimeLoss="0.66" meanOccupancy="1.29" maxOccupancy="3.64" meanMaxJamLengthInVehicles="0.00" meanMaxJamLengthInMeters="0.00" maxJamLengthInVehicles="0" maxJamLengthInMeters="0.00" jamLengthInVehiclesSum="0" jamLengthInMetersSum="0.00" meanHaltingDuration="0.00" maxHaltingDuration="0.00" haltingDurationSum="0.00" meanIntervalHaltingDuration="0.00" maxIntervalHaltingDuration="0.00" intervalHaltingDurationSum="0.00" startedHalts="0.00" meanVehicleNumber="5.18" maxVehicleNumber="15" />
   <interval begin="0.00" end="60.00" id="mainline_up_1_2" sampledSeconds="233.55" nVehEntered="19" nVehLeft="6" nVehSeen="19" meanSpeed="21.20" meanTimeLoss="0.33" meanOccupancy="1.00" maxOccupancy="3.25" meanMaxJamLengthInVehicles="0.00" meanMaxJamLengthInMeters="0.00" maxJamLengthInVehicles="0" maxJamLengthInMeters="0.00" jamLengthInVehiclesSum="0" jamLengthInMetersSum="0.00" meanHaltingDuration="0.00" maxHaltingDuration="0.00" haltingDurationSum="0.00" meanIntervalHaltingDuration="0.00" maxIntervalHaltingDuration="0.00" intervalHaltingDurationSum="0.00" startedHalts="0.00" meanVehicleNumber="4.02" maxVehicleNumber="13" />
   <interval begin="0.00" end="60.00" id="mainline_up_2_2" sampledSeconds="235.39" nVehEntered="18" nVehLeft="3" nVehSeen="18" meanSpeed="22.63" meanTimeLoss="0.62" meanOccupancy="1.00" maxOccupancy="3.75" meanMaxJamLengthInVehicles="0.00" meanMaxJamLengthInMeters="0.00" maxJamLengthInVehicles="0" maxJamLengthInMeters="0.00" jamLengthInVehiclesSum="0" jamLengthInMetersSum="0.00" meanHaltingDuration="0.00" maxHaltingDuration="0.00" haltingDurationSum="0.00" meanIntervalHaltingDuration="0.00" maxIntervalHaltingDuration="0.00" intervalHaltingDurationSum="0.00" startedHalts="0.00" meanVehicleNumber="4.05" maxVehicleNumber="15" />
   <interval begin="60.00" end="120.00" id="mainline_up_0_2" sampledSeconds="1430.32" nVehEntered="28" nVehLeft="13" nVehSeen="43" meanSpeed="18.96" meanTimeLoss="2.67" meanOccupancy="5.99" maxOccupancy="7.75" meanMaxJamLengthInVehicles="0.00" meanMaxJamLengthInMeters="0.00" maxJamLengthInVehicles="0" maxJamLengthInMeters="0.00" jamLengthInVehiclesSum="0" jamLengthInMetersSum="0.00" meanHaltingDuration="0.00" maxHaltingDuration="0.00" haltingDurationSum="0.00" meanIntervalHaltingDuration="0.00" maxIntervalHaltingDuration="0.00" intervalHaltingDurationSum="0.00" startedHalts="0.00" meanVehicleNumber="24.03" maxVehicleNumber="31" />
   <interval begin="60.00" end="120.00" id="mainline_up_1_2" sampledSeconds="1606.87" nVehEntered="50" nVehLeft="27" nVehSeen="63" meanSpeed="20.51" meanTimeLoss="1.91" meanOccupancy="6.74" maxOccupancy="9.25" meanMaxJamLengthInVehicles="0.00" meanMaxJamLengthInMeters="0.00" maxJamLengthInVehicles="0" maxJamLengthInMeters="0.00" jamLengthInVehiclesSum="0" jamLengthInMetersSum="0.00" meanHaltingDuration="0.00" maxHaltingDuration="0.00" haltingDurationSum="0.00" meanIntervalHaltingDuration="0.00" maxIntervalHaltingDuration="0.00" intervalHaltingDurationSum="0.00" startedHalts="0.00" meanVehicleNumber="27.07" maxVehicleNumber="38" />
   <interval begin="60.00" end="120.00" id="mainline_up_2_2" sampledSeconds="1699.79" nVehEntered="42" nVehLeft="12" nVehSeen="57" meanSpeed="21.93" meanTimeLoss="2.16" meanOccupancy="7.12" maxOccupancy="11.75" meanMaxJamLengthInVehicles="0.00" meanMaxJamLengthInMeters="0.00" maxJamLengthInVehicles="0" maxJamLengthInMeters="0.00" jamLengthInVehiclesSum="0" jamLengthInMetersSum="0.00" meanHaltingDuration="0.00" maxHaltingDuration="0.00" haltingDurationSum="0.00" meanIntervalHaltingDuration="0.00" maxIntervalHaltingDuration="0.00" intervalHaltingDurationSum="0.00" startedHalts="0.00" meanVehicleNumber="28.55" maxVehicleNumber="47" />
   <interval begin="120.00" end="180.00" id="mainline_up_0_2" sampledSeconds="2010.08" nVehEntered="35" nVehLeft="29" nVehSeen="65" meanSpeed="18.59" meanTimeLoss="2.52" meanOccupancy="8.37" maxOccupancy="9.25" meanMaxJamLengthInVehicles="0.00" meanMaxJamLengthInMeters="0.00" maxJamLengthInVehicles="0" maxJamLengthInMeters="0.00" jamLengthInVehiclesSum="0" jamLengthInMetersSum="0.00" meanHaltingDuration="0.00" maxHaltingDuration="0.00" haltingDurationSum="0.00" meanIntervalHaltingDuration="0.00" maxIntervalHaltingDuration="0.00" intervalHaltingDurationSum="0.00" startedHalts="0.00" meanVehicleNumber="33.87" maxVehicleNumber="38" />
   <interval begin="120.00" end="180.00" id="mainline_up_1_2" sampledSeconds="2398.59" nVehEntered="50" nVehLeft="46" nVehSeen="86" meanSpeed="20.16" meanTimeLoss="2.31" meanOccupancy="9.98" maxOccupancy="11.00" meanMaxJamLengthInVehicles="0.00" meanMaxJamLengthInMeters="0.00" maxJamLengthInVehicles="0" maxJamLengthInMeters="0.00" jamLengthInVehiclesSum="0" jamLengthInMetersSum="0.00" meanHaltingDuration="0.00" maxHaltingDuration="0.00" haltingDurationSum="0.00" meanIntervalHaltingDuration="0.00" maxIntervalHaltingDuration="0.00" intervalHaltingDurationSum="0.00" startedHalts="0.00" meanVehicleNumber="40.40" maxVehicleNumber="44" />
   <interval begin="120.00" end="180.00" id="mainline_up_2_2" sampledSeconds="2908.91" nVehEntered="37" nVehLeft="34" nVehSeen="82" meanSpeed="21.33" meanTimeLoss="3.20" meanOccupancy="12.09" maxOccupancy="13.75" meanMaxJamLengthInVehicles="0.00" meanMaxJamLengthInMeters="0.00" maxJamLengthInVehicles="0" maxJamLengthInMeters="0.00" jamLengthInVehiclesSum="0" jamLengthInMetersSum="0.00" meanHaltingDuration="0.00" maxHaltingDuration="0.00" haltingDurationSum="0.00" meanIntervalHaltingDuration="0.00" maxIntervalHaltingDuration="0.00" intervalHaltingDurationSum="0.00" startedHalts="0.00" meanVehicleNumber="48.90" maxVehicleNumber="56" />
   <interval begin="180.00" end="240.00" id="mainline_up_0_2" sampledSeconds="2123.10" nVehEntered="31" nVehLeft="34" nVehSeen="67" meanSpeed="18.39" meanTimeLoss="3.21" meanOccupancy="8.84" maxOccupancy="10.00" meanMaxJamLengthInVehicles="0.00" meanMaxJamLengthInMeters="0.00" maxJamLengthInVehicles="0" maxJamLengthInMeters="0.00" jamLengthInVehiclesSum="0" jamLengthInMetersSum="0.00" meanHaltingDuration="0.00" maxHaltingDuration="0.00" haltingDurationSum="0.00" meanIntervalHaltingDuration="0.00" maxIntervalHaltingDuration="0.00" intervalHaltingDurationSum="0.00" startedHalts="0.00" meanVehicleNumber="35.72" maxVehicleNumber="40" />
   <interval begin="180.00" end="240.00" id="mainline_up_1_2" sampledSeconds="2591.29" nVehEntered="48" nVehLeft="46" nVehSeen="88" meanSpeed="19.62" meanTimeLoss="3.12" meanOccupancy="10.77" maxOccupancy="11.50" meanMaxJamLengthInVehicles="0.00" meanMaxJamLengthInMeters="0.00" maxJamLengthInVehicles="0" maxJamLengthInMeters="0.00" jamLengthInVehiclesSum="0" jamLengthInMetersSum="0.00" meanHaltingDuration="0.00" maxHaltingDuration="0.00" haltingDurationSum="0.00" meanIntervalHaltingDuration="0.00" maxIntervalHaltingDuration="0.00" intervalHaltingDurationSum="0.00" startedHalts="0.00" meanVehicleNumber="43.62" maxVehicleNumber="46" />
   <interval begin="180.00" end="240.00" id="mainline_up_2_2" sampledSeconds="2977.86" nVehEntered="43" nVehLeft="35" nVehSeen="91" meanSpeed="20.87" meanTimeLoss="3.49" meanOccupancy="12.37" maxOccupancy="13.94" meanMaxJamLengthInVehicles="0.00" meanMaxJamLengthInMeters="0.00" maxJamLengthInVehicles="0" maxJamLengthInMeters="0.00" jamLengthInVehiclesSum="0" jamLengthInMetersSum="0.00" meanHaltingDuration="0.00" maxHaltingDuration="0.00" haltingDurationSum="0.00" meanIntervalHaltingDuration="0.00" maxIntervalHaltingDuration="0.00" intervalHaltingDurationSum="0.00" startedHalts="0.00" meanVehicleNumber="50.12" maxVehicleNumber="56" />
   <interval begin="240.00" end="300.00" id="mainline_up_0_2" sampledSeconds="2032.54" nVehEntered="26" nVehLeft="26" nVehSeen="59" meanSpeed="18.12" meanTimeLoss="3.72" meanOccupancy="8.45" maxOccupancy="9.25" meanMaxJamLengthInVehicles="0.00" meanMaxJamLengthInMeters="0.00" maxJamLengthInVehicles="0" maxJamLengthInMeters="0.00" jamLengthInVehiclesSum="0" jamLengthInMetersSum="0.00" meanHaltingDuration="0.00" maxHaltingDuration="0.00" haltingDurationSum="0.00" meanIntervalHaltingDuration="0.00" maxIntervalHaltingDuration="0.00" intervalHaltingDurationSum="0.00" startedHalts="0.00" meanVehicleNumber="34.10" maxVehicleNumber="37" />
   <interval begin="240.00" end="300.00" id="mainline_up_1_2" sampledSeconds="2686.21" nVehEntered="48" nVehLeft="47" nVehSeen="90" meanSpeed="19.12" meanTimeLoss="3.87" meanOccupancy="11.17" maxOccupancy="12.00" meanMaxJamLengthInVehicles="0.00" meanMaxJamLengthInMeters="0.00" maxJamLengthInVehicles="0" maxJamLengthInMeters="0.00" jamLengthInVehiclesSum="0" jamLengthInMetersSum="0.00" meanHaltingDuration="0.00" maxHaltingDuration="0.00" haltingDurationSum="0.00" meanIntervalHaltingDuration="0.00" maxIntervalHaltingDuration="0.00" intervalHaltingDurationSum="0.00" startedHalts="0.00" meanVehicleNumber="45.23" maxVehicleNumber="48" />
   <interval begin="240.00" end="300.00" id="mainline_up_2_2" sampledSeconds="3273.78" nVehEntered="38" nVehLeft="47" nVehSeen="94" meanSpeed="20.69" meanTimeLoss="4.27" meanOccupancy="13.59" maxOccupancy="14.75" meanMaxJamLengthInVehicles="0.00" meanMaxJamLengthInMeters="0.00" maxJamLengthInVehicles="0" maxJamLengthInMeters="0.00" jamLengthInVehiclesSum="0" jamLengthInMetersSum="0.00" meanHaltingDuration="0.00" maxHaltingDuration="0.00" haltingDurationSum="0.00" meanIntervalHaltingDuration="0.00" maxIntervalHaltingDuration="0.00" intervalHaltingDurationSum="0.00" startedHalts="0.00" meanVehicleNumber="55.12" maxVehicleNumber="60" />
   <interval begin="300.00" end="360.00" id="mainline_up_0_2" sampledSeconds="2753.99" nVehEntered="48" nVehLeft="24" nVehSeen="81" meanSpeed="15.26" meanTimeLoss="1.63" meanOccupancy="11.46" maxOccupancy="14.25" meanMaxJamLengthInVehicles="0.00" meanMaxJamLengthInMeters="0.00" maxJamLengthInVehicles="0" maxJamLengthInMeters="0.00" jamLengthInVehiclesSum="0" jamLengthInMetersSum="0.00" meanHaltingDuration="0.00" maxHaltingDuration="0.00" haltingDurationSum="0.00" meanIntervalHaltingDuration="0.00" maxIntervalHaltingDuration="0.00" intervalHaltingDurationSum="0.00" startedHalts="0.00" meanVehicleNumber="46.25" maxVehicleNumber="57" />
   <interval begin="300.00" end="360.00" id="mainline_up_1_2" sampledSeconds="2850.20" nVehEntered="56" nVehLeft="47" nVehSeen="99" meanSpeed="15.62" meanTimeLoss="1.20" meanOccupancy="11.86" maxOccupancy="13.50" meanMaxJamLengthInVehicles="0.00" meanMaxJamLengthInMeters="0.00" maxJamLengthInVehicles="0" maxJamLengthInMeters="0.00" jamLengthInVehiclesSum="0" jamLengthInMetersSum="0.00" meanHaltingDuration="0.00" maxHaltingDuration="0.00" haltingDurationSum="0.00" meanIntervalHaltingDuration="0.00" maxIntervalHaltingDuration="0.00" intervalHaltingDurationSum="0.00" startedHalts="0.00" meanVehicleNumber="47.93" maxVehicleNumber="54" />
   <interval begin="300.00" end="360.00" id="mainline_up_2_2" sampledSeconds="2509.68" nVehEntered="28" nVehLeft="41" nVehSeen="75" meanSpeed="16.29" meanTimeLoss="1.09" meanOccupancy="10.44" maxOccupancy="12.25" meanMaxJamLengthInVehicles="0.00" meanMaxJamLengthInMeters="0.00" maxJamLengthInVehicles="0" maxJamLengthInMeters="0.00" jamLengthInVehiclesSum="0" jamLengthInMetersSum="0.00" meanHaltingDuration="0.00" maxHaltingDuration="0.00" haltingDurationSum="0.00" meanIntervalHaltingDuration="0.00" maxIntervalHaltingDuration="0.00" intervalHaltingDurationSum="0.00" startedHalts="0.00" meanVehicleNumber="42.22" maxVehicleNumber="49" />
   <interval begin="360.00" end="420.00" id="mainline_up_0_2" sampledSeconds="3375.72" nVehEntered="35" nVehLeft="41" nVehSeen="92" meanSpeed="15.27" meanTimeLoss="4.73" meanOccupancy="14.02" maxOccupancy="15.00" meanMaxJamLengthInVehicles="0.00" meanMaxJamLengthInMeters="0.00" maxJamLengthInVehicles="0" maxJamLengthInMeters="0.00" jamLengthInVehiclesSum="0" jamLengthInMetersSum="0.00" meanHaltingDuration="0.00" maxHaltingDuration="0.00" haltingDurationSum="0.00" meanIntervalHaltingDuration="0.00" maxIntervalHaltingDuration="0.00" intervalHaltingDurationSum="0.00" startedHalts="0.00" meanVehicleNumber="56.65" maxVehicleNumber="61" />
   <interval begin="360.00" end="420.00" id="mainline_up_1_2" sampledSeconds="3439.13" nVehEntered="54" nVehLeft="51" nVehSeen="106" meanSpeed="15.99" meanTimeLoss="4.09" meanOccupancy="14.30" maxOccupancy="15.50" meanMaxJamLengthInVehicles="0.00" meanMaxJamLengthInMeters="0.00" maxJamLengthInVehicles="0" maxJamLengthInMeters="0.00" jamLengthInVehiclesSum="0" jamLengthInMetersSum="0.00" meanHaltingDuration="0.00" maxHaltingDuration="0.00" haltingDurationSum="0.00" meanIntervalHaltingDuration="0.00" maxIntervalHaltingDuration="0.00" intervalHaltingDurationSum="0.00" startedHalts="0.00" meanVehicleNumber="57.80" maxVehicleNumber="63" />
   <interval begin="360.00" end="420.00" id="mainline_up_2_2" sampledSeconds="2621.04" nVehEntered="39" nVehLeft="21" nVehSeen="73" meanSpeed="16.93" meanTimeLoss="3.62" meanOccupancy="10.93" maxOccupancy="13.00" meanMaxJamLengthInVehicles="0.00" meanMaxJamLengthInMeters="0.00" maxJamLengthInVehicles="0" maxJamLengthInMeters="0.00" jamLengthInVehiclesSum="0" jamLengthInMetersSum="0.00" meanHaltingDuration="0.00" maxHaltingDuration="0.00" haltingDurationSum="0.00" meanIntervalHaltingDuration="0.00" maxIntervalHaltingDuration="0.00" intervalHaltingDurationSum="0.00" startedHalts="0.00" meanVehicleNumber="43.97" maxVehicleNumber="52" />
   <interval begin="420.00" end="480.00" id="mainline_up_0_2" sampledSeconds="3522.86" nVehEntered="41" nVehLeft="30" nVehSeen="92" meanSpeed="14.58" meanTimeLoss="2.44" meanOccupancy="14.65" maxOccupancy="16.15" meanMaxJamLengthInVehicles="0.00" meanMaxJamLengthInMeters="0.00" maxJamLengthInVehicles="0" maxJamLengthInMeters="0.00" jamLengthInVehiclesSum="0" jamLengthInMetersSum="0.00" meanHaltingDuration="0.00" maxHaltingDuration="0.00" haltingDurationSum="0.00" meanIntervalHaltingDuration="0.00" maxIntervalHaltingDuration="0.00" intervalHaltingDurationSum="0.00" startedHalts="0.00" meanVehicleNumber="59.10" maxVehicleNumber="65" />
   <interval begin="420.00" end="480.00" id="mainline_up_1_2" sampledSeconds="3479.34" nVehEntered="51" nVehLeft="47" nVehSeen="106" meanSpeed="14.88" meanTimeLoss="1.65" meanOccupancy="14.47" maxOccupancy="15.50" meanMaxJamLengthInVehicles="0.00" meanMaxJamLengthInMeters="0.00" maxJamLengthInVehicles="0" maxJamLengthInMeters="0.00" jamLengthInVehiclesSum="0" jamLengthInMetersSum="0.00" meanHaltingDuration="0.00" maxHaltingDuration="0.00" haltingDurationSum="0.00" meanIntervalHaltingDuration="0.00" maxIntervalHaltingDuration="0.00" intervalHaltingDurationSum="0.00" startedHalts="0.00" meanVehicleNumber="58.40" maxVehicleNumber="62" />
   <interval begin="420.00" end="480.00" id="mainline_up_2_2" sampledSeconds="3030.69" nVehEntered="34" nVehLeft="33" nVehSeen="86" meanSpeed="15.07" meanTimeLoss="1.62" meanOccupancy="12.60" maxOccupancy="13.50" meanMaxJamLengthInVehicles="0.00" meanMaxJamLengthInMeters="0.00" maxJamLengthInVehicles="0" maxJamLengthInMeters="0.00" jamLengthInVehiclesSum="0" jamLengthInMetersSum="0.00" meanHaltingDuration="0.00" maxHaltingDuration="0.00" haltingDurationSum="0.00" meanIntervalHaltingDuration="0.00" maxIntervalHaltingDuration="0.00" intervalHaltingDurationSum="0.00" startedHalts="0.00" meanVehicleNumber="50.80" maxVehicleNumber="54" />
   <interval begin="480.00" end="540.00" id="mainline_up_0_2" sampledSeconds="3719.22" nVehEntered="39" nVehLeft="44" nVehSeen="101" meanSpeed="13.10" meanTimeLoss="6.03" meanOccupancy="15.45" maxOccupancy="16.50" meanMaxJamLengthInVehicles="0.33" meanMaxJamLengthInMeters="2.17" maxJamLengthInVehicles="3" maxJamLengthInMeters="22.38" jamLengthInVehiclesSum="20" jamLengthInMetersSum="130.16" meanHaltingDuration="3.22" maxHaltingDuration="4.00" haltingDurationSum="29.00" meanIntervalHaltingDuration="3.22" maxIntervalHaltingDuration="4.00" intervalHaltingDurationSum="29.00" startedHalts="9.00" meanVehicleNumber="62.35" maxVehicleNumber="67" />
   <interval begin="480.00" end="540.00" id="mainline_up_1_2" sampledSeconds="3593.43" nVehEntered="66" nVehLeft="67" nVehSeen="125" meanSpeed="13.77" meanTimeLoss="4.03" meanOccupancy="14.92" maxOccupancy="15.98" meanMaxJamLengthInVehicles="0.00" meanMaxJamLengthInMeters="0.00" maxJamLengthInVehicles="0" maxJamLengthInMeters="0.00" jamLengthInVehiclesSum="0" jamLengthInMetersSum="0.00" meanHaltingDuration="0.00" maxHaltingDuration="0.00" haltingDurationSum="0.00" meanIntervalHaltingDuration="0.00" maxIntervalHaltingDuration="0.00" intervalHaltingDurationSum="0.00" startedHalts="0.00" meanVehicleNumber="60.35" maxVehicleNumber="64" />
   <interval begin="480.00" end="540.00" id="mainline_up_2_2" sampledSeconds="3232.65" nVehEntered="48" nVehLeft="45" nVehSeen="101" meanSpeed="14.52" meanTimeLoss="3.42" meanOccupancy="13.43" maxOccupancy="14.50" meanMaxJamLengthInVehicles="0.00" meanMaxJamLengthInMeters="0.00" maxJamLengthInVehicles="0" maxJamLengthInMeters="0.00" jamLengthInVehiclesSum="0" jamLengthInMetersSum="0.00" meanHaltingDuration="0.00" maxHaltingDuration="0.00" haltingDurationSum="0.00" meanIntervalHaltingDuration="0.00" maxIntervalHaltingDuration="0.00" intervalHaltingDurationSum="0.00" startedHalts="0.00" meanVehicleNumber="54.35" maxVehicleNumber="59" />
   <interval begin="540.00" end="600.00" id="mainline_up_0_2" sampledSeconds="3848.51" nVehEntered="44" nVehLeft="37" nVehSeen="101" meanSpeed="12.00" meanTimeLoss="4.02" meanOccupancy="16.01" maxOccupancy="17.25" meanMaxJamLengthInVehicles="0.00" meanMaxJamLengthInMeters="0.00" maxJamLengthInVehicles="0" maxJamLengthInMeters="0.00" jamLengthInVehiclesSum="0" jamLengthInMetersSum="0.00" meanHaltingDuration="0.00" maxHaltingDuration="0.00" haltingDurationSum="0.00" meanIntervalHaltingDuration="0.00" maxIntervalHaltingDuration="0.00" intervalHaltingDurationSum="0.00" startedHalts="0.00" meanVehicleNumber="64.47" maxVehicleNumber="69" />
   <interval begin="540.00" end="600.00" id="mainline_up_1_2" sampledSeconds="3971.06" nVehEntered="62" nVehLeft="51" nVehSeen="120" meanSpeed="12.08" meanTimeLoss="3.70" meanOccupancy="16.52" maxOccupancy="17.50" meanMaxJamLengthInVehicles="0.00" meanMaxJamLengthInMeters="0.00" maxJamLengthInVehicles="0" maxJamLengthInMeters="0.00" jamLengthInVehiclesSum="0" jamLengthInMetersSum="0.00" meanHaltingDuration="0.00" maxHaltingDuration="0.00" haltingDurationSum="0.00" meanIntervalHaltingDuration="0.00" maxIntervalHaltingDuration="0.00" intervalHaltingDurationSum="0.00" startedHalts="0.00" meanVehicleNumber="66.60" maxVehicleNumber="71" />
   <interval begin="540.00" end="600.00" id="mainline_up_2_2" sampledSeconds="3445.25" nVehEntered="39" nVehLeft="33" nVehSeen="95" meanSpeed="12.50" meanTimeLoss="3.50" meanOccupancy="14.34" maxOccupancy="15.57" meanMaxJamLengthInVehicles="0.00" meanMaxJamLengthInMeters="0.00" maxJamLengthInVehicles="0" maxJamLengthInMeters="0.00" jamLengthInVehiclesSum="0" jamLengthInMetersSum="0.00" meanHaltingDuration="0.00" maxHaltingDuration="0.00" haltingDurationSum="0.00" meanIntervalHaltingDuration="0.00" maxIntervalHaltingDuration="0.00" intervalHaltingDurationSum="0.00" startedHalts="0.00" meanVehicleNumber="57.78" maxVehicleNumber="64" />
   <interval begin="600.00" end="660.00" id="mainline_up_0_2" sampledSeconds="3881.68" nVehEntered="33" nVehLeft="34" nVehSeen="97" meanSpeed="15.60" meanTimeLoss="4.37" meanOccupancy="16.12" maxOccupancy="17.00" meanMaxJamLengthInVehicles="0.22" meanMaxJamLengthInMeters="1.23" maxJamLengthInVehicles="2" maxJamLengthInMeters="13.63" jamLengthInVehiclesSum="13" jamLengthInMetersSum="73.72" meanHaltingDuration="2.22" maxHaltingDuration="3.00" haltingDurationSum="20.00" meanIntervalHaltingDuration="2.22" maxIntervalHaltingDuration="3.00" intervalHaltingDurationSum="20.00" startedHalts="10.00" meanVehicleNumber="65.03" maxVehicleNumber="68" />
   <interval begin="600.00" end="660.00" id="mainline_up_1_2" sampledSeconds="3985.85" nVehEntered="48" nVehLeft="54" nVehSeen="117" meanSpeed="16.06" meanTimeLoss="3.06" meanOccupancy="16.55" maxOccupancy="17.42" meanMaxJamLengthInVehicles="0.00" meanMaxJamLengthInMeters="0.00" maxJamLengthInVehicles="0" maxJamLengthInMeters="0.00" jamLengthInVehiclesSum="0" jamLengthInMetersSum="0.00" meanHaltingDuration="1.00" maxHaltingDuration="1.00" haltingDurationSum="1.00" meanIntervalHaltingDuration="1.00" maxIntervalHaltingDuration="1.00" intervalHaltingDurationSum="1.00" startedHalts="1.00" meanVehicleNumber="66.92" maxVehicleNumber="70" />
   <interval begin="600.00" end="660.00" id="mainline_up_2_2" sampledSeconds="3708.11" nVehEntered="39" nVehLeft="41" nVehSeen="101" meanSpeed="16.92" meanTimeLoss="1.53" meanOccupancy="15.40" maxOccupancy="16.00" meanMaxJamLengthInVehicles="0.00" meanMaxJamLengthInMeters="0.00" maxJamLengthInVehicles="0" maxJamLengthInMeters="0.00" jamLengthInVehiclesSum="0" jamLengthInMetersSum="0.00" meanHaltingDuration="0.00" maxHaltingDuration="0.00" haltingDurationSum="0.00" meanIntervalHaltingDuration="0.00" maxIntervalHaltingDuration="0.00" intervalHaltingDurationSum="0.00" startedHalts="0.00" meanVehicleNumber="62.32" maxVehicleNumber="65" />
   <interval begin="660.00" end="720.00" id="mainline_up_0_2" sampledSeconds="3977.68" nVehEntered="41" nVehLeft="43" nVehSeen="104" meanSpeed="11.97" meanTimeLoss="9.21" meanOccupancy="16.51" maxOccupancy="18.38" meanMaxJamLengthInVehicles="5.90" meanMaxJamLengthInMeters="44.93" maxJamLengthInVehicles="11" maxJamLengthInMeters="85.83" jamLengthInVehiclesSum="354" jamLengthInMetersSum="2695.67" meanHaltingDuration="10.25" maxHaltingDuration="15.00" haltingDurationSum="369.00" meanIntervalHaltingDuration="10.17" maxIntervalHaltingDuration="15.00" intervalHaltingDurationSum="366.00" startedHalts="37.00" meanVehicleNumber="66.65" maxVehicleNumber="74" />
   <interval begin="660.00" end="720.00" id="mainline_up_1_2" sampledSeconds="3794.31" nVehEntered="68" nVehLeft="68" nVehSeen="131" meanSpeed="14.39" meanTimeLoss="2.79" meanOccupancy="15.75" maxOccupancy="16.75" meanMaxJamLengthInVehicles="0.00" meanMaxJamLengthInMeters="0.00" maxJamLengthInVehicles="0" maxJamLengthInMeters="0.00" jamLengthInVehiclesSum="0" jamLengthInMetersSum="0.00" meanHaltingDuration="0.00" maxHaltingDuration="0.00" haltingDurationSum="0.00" meanIntervalHaltingDuration="0.00" maxIntervalHaltingDuration="0.00" intervalHaltingDurationSum="0.00" startedHalts="0.00" meanVehicleNumber="63.78" maxVehicleNumber="68" />
   <interval begin="660.00" end="720.00" id="mainline_up_2_2" sampledSeconds="3443.43" nVehEntered="43" nVehLeft="47" nVehSeen="103" meanSpeed="15.19" meanTimeLoss="1.95" meanOccupancy="14.30" maxOccupancy="15.25" meanMaxJamLengthInVehicles="0.00" meanMaxJamLengthInMeters="0.00" maxJamLengthInVehicles="0" maxJamLengthInMeters="0.00" jamLengthInVehiclesSum="0" jamLengthInMetersSum="0.00" meanHaltingDuration="0.00" maxHaltingDuration="0.00" haltingDurationSum="0.00" meanIntervalHaltingDuration="0.00" maxIntervalHaltingDuration="0.00" intervalHaltingDurationSum="0.00" startedHalts="0.00" meanVehicleNumber="57.87" maxVehicleNumber="62" />
   <interval begin="720.00" end="780.00" id="mainline_up_0_2" sampledSeconds="3899.17" nVehEntered="36" nVehLeft="32" nVehSeen="97" meanSpeed="12.30" meanTimeLoss="6.34" meanOccupancy="16.18" maxOccupancy="16.92" meanMaxJamLengthInVehicles="0.90" meanMaxJamLengthInMeters="6.06" maxJamLengthInVehicles="6" maxJamLengthInMeters="44.54" jamLengthInVehiclesSum="57" jamLengthInMetersSum="381.58" meanHaltingDuration="3.47" maxHaltingDuration="8.00" haltingDurationSum="59.00" meanIntervalHaltingDuration="3.47" maxIntervalHaltingDuration="8.00" intervalHaltingDurationSum="59.00" startedHalts="20.00" meanVehicleNumber="65.38" maxVehicleNumber="68" />
   <interval begin="720.00" end="780.00" id="mainline_up_1_2" sampledSeconds="3925.17" nVehEntered="59" nVehLeft="54" nVehSeen="122" meanSpeed="12.76" meanTimeLoss="4.12" meanOccupancy="16.30" maxOccupancy="17.25" meanMaxJamLengthInVehicles="0.00" meanMaxJamLengthInMeters="0.00" maxJamLengthInVehicles="0" maxJamLengthInMeters="0.00" jamLengthInVehiclesSum="0" jamLengthInMetersSum="0.00" meanHaltingDuration="0.00" maxHaltingDuration="0.00" haltingDurationSum="0.00" meanIntervalHaltingDuration="0.00" maxIntervalHaltingDuration="0.00" intervalHaltingDurationSum="0.00" startedHalts="0.00" meanVehicleNumber="65.88" maxVehicleNumber="70" />
   <interval begin="720.00" end="780.00" id="mainline_up_2_2" sampledSeconds="3301.35" nVehEntered="43" nVehLeft="47" nVehSeen="99" meanSpeed="13.29" meanTimeLoss="3.50" meanOccupancy="13.71" maxOccupancy="14.50" meanMaxJamLengthInVehicles="0.00" meanMaxJamLengthInMeters="0.00" maxJamLengthInVehicles="0" maxJamLengthInMeters="0.00" jamLengthInVehiclesSum="0" jamLengthInMetersSum="0.00" meanHaltingDuration="0.00" maxHaltingDuration="0.00" haltingDurationSum="0.00" meanIntervalHaltingDuration="0.00" maxIntervalHaltingDuration="0.00" intervalHaltingDurationSum="0.00" startedHalts="0.00" meanVehicleNumber="55.48" maxVehicleNumber="59" />
   <interval begin="780.00" end="840.00" id="mainline_up_0_2" sampledSeconds="4148.99" nVehEntered="36" nVehLeft="29" nVehSeen="101" meanSpeed="11.35" meanTimeLoss="2.56" meanOccupancy="17.24" maxOccupancy="18.25" meanMaxJamLengthInVehicles="0.13" meanMaxJamLengthInMeters="0.77" maxJamLengthInVehicles="2" maxJamLengthInMeters="13.95" jamLengthInVehiclesSum="8" jamLengthInMetersSum="46.45" meanHaltingDuration="3.00" maxHaltingDuration="4.00" haltingDurationSum="9.00" meanIntervalHaltingDuration="3.00" maxIntervalHaltingDuration="4.00" intervalHaltingDurationSum="9.00" startedHalts="4.00" meanVehicleNumber="69.53" maxVehicleNumber="74" />
   <interval begin="780.00" end="840.00" id="mainline_up_1_2" sampledSeconds="4189.05" nVehEntered="43" nVehLeft="44" nVehSeen="111" meanSpeed="11.49" meanTimeLoss="2.18" meanOccupancy="17.42" maxOccupancy="18.00" meanMaxJamLengthInVehicles="0.00" meanMaxJamLengthInMeters="0.00" maxJamLengthInVehicles="0" maxJamLengthInMeters="0.00" jamLengthInVehiclesSum="0" jamLengthInMetersSum="0.00" meanHaltingDuration="0.00" maxHaltingDuration="0.00" haltingDurationSum="0.00" meanIntervalHaltingDuration="0.00" maxIntervalHaltingDuration="0.00" intervalHaltingDurationSum="0.00" startedHalts="0.00" meanVehicleNumber="70.27" maxVehicleNumber="72" />
   <interval begin="780.00" end="840.00" id="mainline_up_2_2" sampledSeconds="3486.00" nVehEntered="34" nVehLeft="24" nVehSeen="86" meanSpeed="11.65" meanTimeLoss="2.30" meanOccupancy="14.52" maxOccupancy="16.00" meanMaxJamLengthInVehicles="0.00" meanMaxJamLengthInMeters="0.00" maxJamLengthInVehicles="0" maxJamLengthInMeters="0.00" jamLengthInVehiclesSum="0" jamLengthInMetersSum="0.00" meanHaltingDuration="0.00" maxHaltingDuration="0.00" haltingDurationSum="0.00" meanIntervalHaltingDuration="0.00" maxIntervalHaltingDuration="0.00" intervalHaltingDurationSum="0.00" startedHalts="0.00" meanVehicleNumber="58.43" maxVehicleNumber="64" />
   <interval begin="840.00" end="900.00" id="mainline_up_0_2" sampledSeconds="4057.74" nVehEntered="33" nVehLeft="39" nVehSeen="105" meanSpeed="13.73" meanTimeLoss="5.33" meanOccupancy="16.86" maxOccupancy="18.00" meanMaxJamLengthInVehicles="0.02" meanMaxJamLengthInMeters="0.00" maxJamLengthInVehicles="1" maxJamLengthInMeters="0.00" jamLengthInVehiclesSum="1" jamLengthInMetersSum="0.00" meanHaltingDuration="0.00" maxHaltingDuration="0.00" haltingDurationSum="0.00" meanIntervalHaltingDuration="0.00" maxIntervalHaltingDuration="0.00" intervalHaltingDurationSum="0.00" startedHalts="1.00" meanVehicleNumber="68.05" maxVehicleNumber="73" />
   <interval begin="840.00" end="900.00" id="mainline_up_1_2" sampledSeconds="4136.47" nVehEntered="52" nVehLeft="48" nVehSeen="119" meanSpeed="14.08" meanTimeLoss="4.62" meanOccupancy="17.18" maxOccupancy="17.88" meanMaxJamLengthInVehicles="0.00" meanMaxJamLengthInMeters="0.00" maxJamLengthInVehicles="0" maxJamLengthInMeters="0.00" jamLengthInVehiclesSum="0" jamLengthInMetersSum="0.00" meanHaltingDuration="0.00" maxHaltingDuration="0.00" haltingDurationSum="0.00" meanIntervalHaltingDuration="0.00" maxIntervalHaltingDuration="0.00" intervalHaltingDurationSum="0.00" startedHalts="0.00" meanVehicleNumber="69.42" maxVehicleNumber="72" />
   <interval begin="840.00" end="900.00" id="mainline_up_2_2" sampledSeconds="4066.09" nVehEntered="38" nVehLeft="29" nVehSeen="100" meanSpeed="14.32" meanTimeLoss="5.04" meanOccupancy="16.92" maxOccupancy="17.94" meanMaxJamLengthInVehicles="0.00" meanMaxJamLengthInMeters="0.00" maxJamLengthInVehicles="0" maxJamLengthInMeters="0.00" jamLengthInVehiclesSum="0" jamLengthInMetersSum="0.00" meanHaltingDuration="0.00" maxHaltingDuration="0.00" haltingDurationSum="0.00" meanIntervalHaltingDuration="0.00" maxIntervalHaltingDuration="0.00" intervalHaltingDurationSum="0.00" startedHalts="0.00" meanVehicleNumber="68.22" maxVehicleNumber="73" />