<?xml version="1.0" encoding="UTF-8"?>

<!-- generated on 03/02/19 12:14:00 by Eclipse SUMO Version 1.0.1
<configuration xmlns:xsi="http://www.w3.org/2001/XMLSchema-instance" xsi:noNamespaceSchemaLocation="http://sumo.dlr.de/xsd/sumoConfiguration.xsd">

    <input>
        <net-file value="./project/ramp.net.xml"/>
        <route-files value="./project/ramp.rou.xml"/>
        <additional-files value="./project/ramp.add.xml"/>
    </input>

    <time>
        <begin value="0"/>
    </time>

    <report>
        <verbose value="true"/>
        <no-step-log value="true"/>
    </report>

    <traci_server>
        <remote-port value="25142"/>
    </traci_server>

    <random_number>
        <seed value="692897539"/>
    </random_number>

    <gui_only>
        <quit-on-end value="true"/>
        <start value="true"/>
    </gui_only>

</configuration>
-->

<detector xmlns:xsi="http://www.w3.org/2001/XMLSchema-instance" xsi:noNamespaceSchemaLocation="http://sumo.dlr.de/xsd/det_e2_file.xsd">
   <interval begin="0.00" end="60.00" id="mainline_up_0_2" sampledSeconds="239.51" nVehEntered="14" nVehLeft="1" nVehSeen="14" meanSpeed="20.55" meanTimeLoss="0.48" meanOccupancy="1.01" maxOccupancy="3.25" meanMaxJamLengthInVehicles="0.00" meanMaxJamLengthInMeters="0.00" maxJamLengthInVehicles="0" maxJamLengthInMeters="0.00" jamLengthInVehiclesSum="0" jamLengthInMetersSum="0.00" meanHaltingDuration="0.00" maxHaltingDuration="0.00" haltingDurationSum="0.00" meanIntervalHaltingDuration="0.00" maxIntervalHaltingDuration="0.00" intervalHaltingDurationSum="0.00" startedHalts="0.00" meanVehicleNumber="4.05" maxVehicleNumber="13" />
   <interval begin="0.00" end="60.00" id="mainline_up_1_2" sampledSeconds="250.39" nVehEntered="19" nVehLeft="8" nVehSeen="19" meanSpeed="21.28" meanTimeLoss="0.38" meanOccupancy="1.06" maxOccupancy="3.00" meanMaxJamLengthInVehicles="0.00" meanMaxJamLengthInMeters="0.00" maxJamLengthInVehicles="0" maxJamLengthInMeters="0.00" jamLengthInVehiclesSum="0" jamLengthInMetersSum="0.00" meanHaltingDuration="0.00" maxHaltingDuration="0.00" haltingDurationSum="0.00" meanIntervalHaltingDuration="0.00" maxIntervalHaltingDuration="0.00" intervalHaltingDurationSum="0.00" startedHalts="0.00" meanVehicleNumber="4.27" maxVehicleNumber="12" />
   <interval begin="0.00" end="60.00" id="mainline_up_2_2" sampledSeconds="282.87" nVehEntered="19" nVehLeft="5" nVehSeen="19" meanSpeed="22.84" meanTimeLoss="0.66" meanOccupancy="1.21" maxOccupancy="3.50" meanMaxJamLengthInVehicles="0.00" meanMaxJamLengthInMeters="0.00" maxJamLengthInVehicles="0" maxJamLengthInMeters="0.00" jamLengthInVehiclesSum="0" jamLengthInMetersSum="0.00" meanHaltingDuration="0.00" maxHaltingDuration="0.00" haltingDurationSum="0.00" meanIntervalHaltingDuration="0.00" maxIntervalHaltingDuration="0.00" intervalHaltingDurationSum="0.00" startedHalts="0.00" meanVehicleNumber="4.88" maxVehicleNumber="14" />
   <interval begin="60.00" end="120.00" id="mainline_up_0_2" sampledSeconds="1405.28" nVehEntered="35" nVehLeft="16" nVehSeen="48" meanSpeed="19.61" meanTimeLoss="1.55" meanOccupancy="5.89" maxOccupancy="8.00" meanMaxJamLengthInVehicles="0.00" meanMaxJamLengthInMeters="0.00" maxJamLengthInVehicles="0" maxJamLengthInMeters="0.00" jamLengthInVehiclesSum="0" jamLengthInMetersSum="0.00" meanHaltingDuration="0.00" maxHaltingDuration="0.00" haltingDurationSum="0.00" meanIntervalHaltingDuration="0.00" maxIntervalHaltingDuration="0.00" intervalHaltingDurationSum="0.00" startedHalts="0.00" meanVehicleNumber="23.67" maxVehicleNumber="33" />
   <interval begin="60.00" end="120.00" id="mainline_up_1_2" sampledSeconds="1386.31" nVehEntered="48" nVehLeft="23" nVehSeen="59" meanSpeed="20.89" meanTimeLoss="1.17" meanOccupancy="5.82" maxOccupancy="9.50" meanMaxJamLengthInVehicles="0.00" meanMaxJamLengthInMeters="0.00" maxJamLengthInVehicles="0" maxJamLengthInMeters="0.00" jamLengthInVehiclesSum="0" jamLengthInMetersSum="0.00" meanHaltingDuration="0.00" maxHaltingDuration="0.00" haltingDurationSum="0.00" meanIntervalHaltingDuration="0.00" maxIntervalHaltingDuration="0.00" intervalHaltingDurationSum="0.00" startedHalts="0.00" meanVehicleNumber="23.32" maxVehicleNumber="38" />
   <interval begin="60.00" end="120.00" id="mainline_up_2_2" sampledSeconds="1620.37" nVehEntered="35" nVehLeft="10" nVehSeen="49" meanSpeed="22.34" meanTimeLoss="1.88" meanOccupancy="6.79" maxOccupancy="9.75" meanMaxJamLengthInVehicles="0.00" meanMaxJamLengthInMeters="0.00" maxJamLengthInVehicles="0" maxJamLengthInMeters="0.00" jamLengthInVehiclesSum="0" jamLengthInMetersSum="0.00" meanHaltingDuration="0.00" maxHaltingDuration="0.00" haltingDurationSum="0.00" meanIntervalHaltingDuration="0.00" maxIntervalHaltingDuration="0.00" intervalHaltingDurationSum="0.00" startedHalts="0.00" meanVehicleNumber="27.22" maxVehicleNumber="39" />
   <interval begin="120.00" end="180.00" id="mainline_up_0_2" sampledSeconds="2072.29" nVehEntered="36" nVehLeft="27" nVehSeen="68" meanSpeed="18.82" meanTimeLoss="2.59" meanOccupancy="8.64" maxOccupancy="10.25" meanMaxJamLengthInVehicles="0.00" meanMaxJamLengthInMeters="0.00" maxJamLengthInVehicles="0" maxJamLengthInMeters="0.00" jamLengthInVehiclesSum="0" jamLengthInMetersSum="0.00" meanHaltingDuration="0.00" maxHaltingDuration="0.00" haltingDurationSum="0.00" meanIntervalHaltingDuration="0.00" maxIntervalHaltingDuration="0.00" intervalHaltingDurationSum="0.00" startedHalts="0.00" meanVehicleNumber="34.85" maxVehicleNumber="41" />
   <interval begin="120.00" end="180.00" id="mainline_up_1_2" sampledSeconds="2413.64" nVehEntered="56" nVehLeft="51" nVehSeen="92" meanSpeed="20.02" meanTimeLoss="2.16" meanOccupancy="10.04" maxOccupancy="11.25" meanMaxJamLengthInVehicles="0.00" meanMaxJamLengthInMeters="0.00" maxJamLengthInVehicles="0" maxJamLengthInMeters="0.00" jamLengthInVehiclesSum="0" jamLengthInMetersSum="0.00" meanHaltingDuration="0.00" maxHaltingDuration="0.00" haltingDurationSum="0.00" meanIntervalHaltingDuration="0.00" maxIntervalHaltingDuration="0.00" intervalHaltingDurationSum="0.00" startedHalts="0.00" meanVehicleNumber="40.62" maxVehicleNumber="45" />
   <interval begin="120.00" end="180.00" id="mainline_up_2_2" sampledSeconds="2560.91" nVehEntered="46" nVehLeft="35" nVehSeen="85" meanSpeed="21.58" meanTimeLoss="2.20" meanOccupancy="10.67" maxOccupancy="12.50" meanMaxJamLengthInVehicles="0.00" meanMaxJamLengthInMeters="0.00" maxJamLengthInVehicles="0" maxJamLengthInMeters="0.00" jamLengthInVehiclesSum="0" jamLengthInMetersSum="0.00" meanHaltingDuration="0.00" maxHaltingDuration="0.00" haltingDurationSum="0.00" meanIntervalHaltingDuration="0.00" maxIntervalHaltingDuration="0.00" intervalHaltingDurationSum="0.00" startedHalts="0.00" meanVehicleNumber="43.12" maxVehicleNumber="51" />
   <interval begin="180.00" end="240.00" id="mainline_up_0_2" sampledSeconds="2570.97" nVehEntered="41" nVehLeft="33" nVehSeen="82" meanSpeed="16.69" meanTimeLoss="2.29" meanOccupancy="10.69" maxOccupancy="12.25" meanMaxJamLengthInVehicles="0.00" meanMaxJamLengthInMeters="0.00" maxJamLengthInVehicles="0" maxJamLengthInMeters="0.00" jamLengthInVehiclesSum="0" jamLengthInMetersSum="0.00" meanHaltingDuration="0.00" maxHaltingDuration="0.00" haltingDurationSum="0.00" meanIntervalHaltingDuration="0.00" maxIntervalHaltingDuration="0.00" intervalHaltingDurationSum="0.00" startedHalts="0.00" meanVehicleNumber="43.17" maxVehicleNumber="50" />
   <interval begin="180.00" end="240.00" id="mainline_up_1_2" sampledSeconds="2782.54" nVehEntered="59" nVehLeft="49" nVehSeen="100" meanSpeed="17.35" meanTimeLoss="1.92" meanOccupancy="11.56" maxOccupancy="14.00" meanMaxJamLengthInVehicles="0.00" meanMaxJamLengthInMeters="0.00" maxJamLengthInVehicles="0" maxJamLengthInMeters="0.00" jamLengthInVehiclesSum="0" jamLengthInMetersSum="0.00" meanHaltingDuration="0.00" maxHaltingDuration="0.00" haltingDurationSum="0.00" meanIntervalHaltingDuration="0.00" maxIntervalHaltingDuration="0.00" intervalHaltingDurationSum="0.00" startedHalts="0.00" meanVehicleNumber="46.75" maxVehicleNumber="57" />
   <interval begin="180.00" end="240.00" id="mainline_up_2_2" sampledSeconds="2771.08" nVehEntered="34" nVehLeft="44" nVehSeen="84" meanSpeed="18.16" meanTimeLoss="2.36" meanOccupancy="11.52" maxOccupancy="12.75" meanMaxJamLengthInVehicles="0.00" meanMaxJamLengthInMeters="0.00" maxJamLengthInVehicles="0" maxJamLengthInMeters="0.00" jamLengthInVehiclesSum="0" jamLengthInMetersSum="0.00" meanHaltingDuration="0.00" maxHaltingDuration="0.00" haltingDurationSum="0.00" meanIntervalHaltingDuration="0.00" maxIntervalHaltingDuration="0.00" intervalHaltingDurationSum="0.00" startedHalts="0.00" meanVehicleNumber="46.65" maxVehicleNumber="52" />
   <interval begin="240.00" end="300.00" id="mainline_up_0_2" sampledSeconds="3135.54" nVehEntered="44" nVehLeft="40" nVehSeen="93" meanSpeed="15.12" meanTimeLoss="3.02" meanOccupancy="13.04" maxOccupancy="14.50" meanMaxJamLengthInVehicles="0.00" meanMaxJamLengthInMeters="0.00" maxJamLengthInVehicles="0" maxJamLengthInMeters="0.00" jamLengthInVehiclesSum="0" jamLengthInMetersSum="0.00" meanHaltingDuration="0.00" maxHaltingDuration="0.00" haltingDurationSum="0.00" meanIntervalHaltingDuration="0.00" maxIntervalHaltingDuration="0.00" intervalHaltingDurationSum="0.00" startedHalts="0.00" meanVehicleNumber="52.63" maxVehicleNumber="58" />
   <interval begin="240.00" end="300.00" id="mainline_up_1_2" sampledSeconds="3211.37" nVehEntered="62" nVehLeft="58" nVehSeen="113" meanSpeed="15.57" meanTimeLoss="2.20" meanOccupancy="13.35" maxOccupancy="14.75" meanMaxJamLengthInVehicles="0.00" meanMaxJamLengthInMeters="0.00" maxJamLengthInVehicles="0" maxJamLengthInMeters="0.00" jamLengthInVehiclesSum="0" jamLengthInMetersSum="0.00" meanHaltingDuration="0.00" maxHaltingDuration="0.00" haltingDurationSum="0.00" meanIntervalHaltingDuration="0.00" maxIntervalHaltingDuration="0.00" intervalHaltingDurationSum="0.00" startedHalts="0.00" meanVehicleNumber="53.92" maxVehicleNumber="60" />
   <interval begin="240.00" end="300.00" id="mainline_up_2_2" sampledSeconds="2722.68" nVehEntered="40" nVehLeft="35" nVehSeen="80" meanSpeed="15.96" meanTimeLoss="2.09" meanOccupancy="11.34" maxOccupancy="13.22" meanMaxJamLengthInVehicles="0.00" meanMaxJamLengthInMeters="0.00" maxJamLengthInVehicles="0" maxJamLengthInMeters="0.00" jamLengthInVehiclesSum="0" jamLengthInMetersSum="0.00" meanHaltingDuration="0.00" maxHaltingDuration="0.00" haltingDurationSum="0.00" meanIntervalHaltingDuration="0.00" maxIntervalHaltingDuration="0.00" intervalHaltingDurationSum="0.00" startedHalts="0.00" meanVehicleNumber="45.78" maxVehicleNumber="53" />
   <interval begin="300.00" end="360.00" id="mainline_up_0_2" sampledSeconds="3306.97" nVehEntered="35" nVehLeft="32" nVehSeen="88" meanSpeed="15.85" meanTimeLoss="1.76" meanOccupancy="13.74" maxOccupancy="14.75" meanMaxJamLengthInVehicles="0.00" meanMaxJamLengthInMeters="0.00" maxJamLengthInVehicles="0" maxJamLengthInMeters="0.00" jamLengthInVehiclesSum="0" jamLengthInMetersSum="0.00" meanHaltingDuration="0.00" maxHaltingDuration="0.00" haltingDurationSum="0.00" meanIntervalHaltingDuration="0.00" maxIntervalHaltingDuration="0.00" intervalHaltingDurationSum="0.00" startedHalts="0.00" meanVehicleNumber="55.53" maxVehicleNumber="59" />
   <interval begin="300.00" end="360.00" id="mainline_up_1_2" sampledSeconds="3370.11" nVehEntered="43" nVehLeft="40" nVehSeen="98" meanSpeed="15.93" meanTimeLoss="1.53" meanOccupancy="14.01" maxOccupancy="14.55" meanMaxJamLengthInVehicles="0.00" meanMaxJamLengthInMeters="0.00" maxJamLengthInVehicles="0" maxJamLengthInMeters="0.00" jamLengthInVehiclesSum="0" jamLengthInMetersSum="0.00" meanHaltingDuration="0.00" maxHaltingDuration="0.00" haltingDurationSum="0.00" meanIntervalHaltingDuration="0.00" maxIntervalHaltingDuration="0.00" intervalHaltingDurationSum="0.00" startedHalts="0.00" meanVehicleNumber="56.60" maxVehicleNumber="59" />
   <interval begin="300.00" end="360.00" id="mainline_up_2_2" sampledSeconds="2900.19" nVehEntered="30" nVehLeft="26" nVehSeen="75" meanSpeed="16.09" meanTimeLoss="1.51" meanOccupancy="12.09" maxOccupancy="12.75" meanMaxJamLengthInVehicles="0.00" meanMaxJamLengthInMeters="0.00" maxJamLengthInVehicles="0" maxJamLengthInMeters="0.00" jamLengthInVehiclesSum="0" jamLengthInMetersSum="0.00" meanHaltingDuration="0.00" maxHaltingDuration="0.00" haltingDurationSum="0.00" meanIntervalHaltingDuration="0.00" maxIntervalHaltingDuration="0.00" intervalHaltingDurationSum="0.00" startedHalts="0.00" meanVehicleNumber="48.67" maxVehicleNumber="51" />
   <interval begin="360.00" end="420.00" id="mainline_up_0_2" sampledSeconds="3518.56" nVehEntered="34" nVehLeft="37" nVehSeen="90" meanSpeed="14.18" meanTimeLoss="3.20" meanOccupancy="14.63" maxOccupancy="15.71" meanMaxJamLengthInVehicles="0.00" meanMaxJamLengthInMeters="0.00" maxJamLengthInVehicles="0" maxJamLengthInMeters="0.00" jamLengthInVehiclesSum="0" jamLengthInMetersSum="0.00" meanHaltingDuration="0.00" maxHaltingDuration="0.00" haltingDurationSum="0.00" meanIntervalHaltingDuration="0.00" maxIntervalHaltingDuration="0.00" intervalHaltingDurationSum="0.00" startedHalts="0.00" meanVehicleNumber="59.07" maxVehicleNumber="63" />
   <interval begin="360.00" end="420.00" id="mainline_up_1_2" sampledSeconds="3647.15" nVehEntered="62" nVehLeft="55" nVehSeen="120" meanSpeed="14.34" meanTimeLoss="2.40" meanOccupancy="15.15" maxOccupancy="16.50" meanMaxJamLengthInVehicles="0.00" meanMaxJamLengthInMeters="0.00" maxJamLengthInVehicles="0" maxJamLengthInMeters="0.00" jamLengthInVehiclesSum="0" jamLengthInMetersSum="0.00" meanHaltingDuration="0.00" maxHaltingDuration="0.00" haltingDurationSum="0.00" meanIntervalHaltingDuration="0.00" maxIntervalHaltingDuration="0.00" intervalHaltingDurationSum="0.00" startedHalts="0.00" meanVehicleNumber="61.32" maxVehicleNumber="67" />
   <interval begin="360.00" end="420.00" id="mainline_up_2_2" sampledSeconds="2990.27" nVehEntered="44" nVehLeft="38" nVehSeen="93" meanSpeed="14.65" meanTimeLoss="2.49" meanOccupancy="12.44" maxOccupancy="14.49" meanMaxJamLengthInVehicles="0.00" meanMaxJamLengthInMeters="0.00" maxJamLengthInVehicles="0" maxJamLengthInMeters="0.00" jamLengthInVehiclesSum="0" jamLengthInMetersSum="0.00" meanHaltingDuration="0.00" maxHaltingDuration="0.00" haltingDurationSum="0.00" meanIntervalHaltingDuration="0.00" maxIntervalHaltingDuration="0.00" intervalHaltingDurationSum="0.00" startedHalts="0.00" meanVehicleNumber="50.30" maxVehicleNumber="58" />
   <interval begin="420.00" end="480.00" id="mainline_up_0_2" sampledSeconds="3720.54" nVehEntered="41" nVehLeft="31" nVehSeen="94" meanSpeed="12.85" meanTimeLoss="5.39" meanOccupancy="15.47" maxOccupancy="16.75" meanMaxJamLengthInVehicles="0.00" meanMaxJamLengthInMeters="0.00" maxJamLengthInVehicles="0" maxJamLengthInMeters="0.00" jamLengthInVehiclesSum="0" jamLengthInMetersSum="0.00" meanHaltingDuration="0.00" maxHaltingDuration="0.00" haltingDurationSum="0.00" meanIntervalHaltingDuration="0.00" maxIntervalHaltingDuration="0.00" intervalHaltingDurationSum="0.00" startedHalts="0.00" meanVehicleNumber="62.33" maxVehicleNumber="67" />
   <interval begin="420.00" end="480.00" id="mainline_up_1_2" sampledSeconds="3790.56" nVehEntered="55" nVehLeft="59" nVehSeen="120" meanSpeed="12.97" meanTimeLoss="4.04" meanOccupancy="15.76" maxOccupancy="16.75" meanMaxJamLengthInVehicles="0.00" meanMaxJamLengthInMeters="0.00" maxJamLengthInVehicles="0" maxJamLengthInMeters="0.00" jamLengthInVehiclesSum="0" jamLengthInMetersSum="0.00" meanHaltingDuration="0.00" maxHaltingDuration="0.00" haltingDurationSum="0.00" meanIntervalHaltingDuration="0.00" maxIntervalHaltingDuration="0.00" intervalHaltingDurationSum="0.00" startedHalts="0.00" meanVehicleNumber="63.55" maxVehicleNumber="67" />
   <interval begin="420.00" end="480.00" id="mainline_up_2_2" sampledSeconds="3279.85" nVehEntered="44" nVehLeft="39" nVehSeen="99" meanSpeed="13.21" meanTimeLoss="3.97" meanOccupancy="13.64" maxOccupancy="15.00" meanMaxJamLengthInVehicles="0.00" meanMaxJamLengthInMeters="0.00" maxJamLengthInVehicles="0" maxJamLengthInMeters="0.00" jamLengthInVehiclesSum="0" jamLengthInMetersSum="0.00" meanHaltingDuration="0.00" maxHaltingDuration="0.00" haltingDurationSum="0.00" meanIntervalHaltingDuration="0.00" maxIntervalHaltingDuration="0.00" intervalHaltingDurationSum="0.00" startedHalts="0.00" meanVehicleNumber="55.15" maxVehicleNumber="61" />
   <interval begin="480.00" end="540.00" id="mainline_up_0_2" sampledSeconds="3391.99" nVehEntered="41" nVehLeft="41" nVehSeen="104" meanSpeed="15.86" meanTimeLoss="3.72" meanOccupancy="14.09" maxOccupancy="15.75" meanMaxJamLengthInVehicles="0.02" meanMaxJamLengthInMeters="0.07" maxJamLengthInVehicles="1" maxJamLengthInMeters="4.29" jamLengthInVehiclesSum="1" jamLengthInMetersSum="4.29" meanHaltingDuration="2.00" maxHaltingDuration="2.00" haltingDurationSum="2.00" meanIntervalHaltingDuration="2.00" maxIntervalHaltingDuration="2.00" intervalHaltingDurationSum="2.00" startedHalts="1.00" meanVehicleNumber="56.95" maxVehicleNumber="64" />
   <interval begin="480.00" end="540.00" id="mainline_up_1_2" sampledSeconds="3687.01" nVehEntered="51" nVehLeft="61" nVehSeen="112" meanSpeed="17.30" meanTimeLoss="2.12" meanOccupancy="15.30" maxOccupancy="16.75" meanMaxJamLengthInVehicles="0.00" meanMaxJamLengthInMeters="0.00" maxJamLengthInVehicles="0" maxJamLengthInMeters="0.00" jamLengthInVehiclesSum="0" jamLengthInMetersSum="0.00" meanHaltingDuration="0.00" maxHaltingDuration="0.00" haltingDurationSum="0.00" meanIntervalHaltingDuration="0.00" maxIntervalHaltingDuration="0.00" intervalHaltingDurationSum="0.00" startedHalts="0.00" meanVehicleNumber="62.00" maxVehicleNumber="68" />
   <interval begin="480.00" end="540.00" id="mainline_up_2_2" sampledSeconds="3757.52" nVehEntered="36" nVehLeft="39" nVehSeen="96" meanSpeed="17.61" meanTimeLoss="1.78" meanOccupancy="15.61" maxOccupancy="16.75" meanMaxJamLengthInVehicles="0.00" meanMaxJamLengthInMeters="0.00" maxJamLengthInVehicles="0" maxJamLengthInMeters="0.00" jamLengthInVehiclesSum="0" jamLengthInMetersSum="0.00" meanHaltingDuration="0.00" maxHaltingDuration="0.00" haltingDurationSum="0.00" meanIntervalHaltingDuration="0.00" maxIntervalHaltingDuration="0.00" intervalHaltingDurationSum="0.00" startedHalts="0.00" meanVehicleNumber="63.12" maxVehicleNumber="68" />
   <interval begin="540.00" end="600.00" id="mainline_up_0_2" sampledSeconds="4100.49" nVehEntered="37" nVehLeft="31" nVehSeen="100" meanSpeed="11.88" meanTimeLoss="2.59" meanOccupancy="17.02" maxOccupancy="18.00" meanMaxJamLengthInVehicles="0.02" meanMaxJamLengthInMeters="0.00" maxJamLengthInVehicles="1" maxJamLengthInMeters="0.00" jamLengthInVehiclesSum="1" jamLengthInMetersSum="0.00" meanHaltingDuration="1.33" maxHaltingDuration="2.00" haltingDurationSum="4.00" meanIntervalHaltingDuration="0.67" maxIntervalHaltingDuration="1.00" intervalHaltingDurationSum="2.00" startedHalts="3.00" meanVehicleNumber="68.62" maxVehicleNumber="72" />
   <interval begin="540.00" end="600.00" id="mainline_up_1_2" sampledSeconds="3691.19" nVehEntered="56" nVehLeft="41" nVehSeen="107" meanSpeed="11.90" meanTimeLoss="2.06" meanOccupancy="15.35" maxOccupancy="16.50" meanMaxJamLengthInVehicles="0.00" meanMaxJamLengthInMeters="0.00" maxJamLengthInVehicles="0" maxJamLengthInMeters="0.00" jamLengthInVehiclesSum="0" jamLengthInMetersSum="0.00" meanHaltingDuration="0.00" maxHaltingDuration="0.00" haltingDurationSum="0.00" meanIntervalHaltingDuration="0.00" maxIntervalHaltingDuration="0.00" intervalHaltingDurationSum="0.00" startedHalts="0.00" meanVehicleNumber="61.95" maxVehicleNumber="66" />
   <interval begin="540.00" end="600.00" id="mainline_up_2_2" sampledSeconds="2840.11" nVehEntered="32" nVehLeft="39" nVehSeen="89" meanSpeed="11.97" meanTimeLoss="1.94" meanOccupancy="11.82" maxOccupancy="14.25" meanMaxJamLengthInVehicles="0.00" meanMaxJamLengthInMeters="0.00" maxJamLengthInVehicles="0" maxJamLengthInMeters="0.00" jamLengthInVehiclesSum="0" jamLengthInMetersSum="0.00" meanHaltingDuration="0.00" maxHaltingDuration="0.00" haltingDurationSum="0.00" meanIntervalHaltingDuration="0.00" maxIntervalHaltingDuration="0.00" intervalHaltingDurationSum="0.00" startedHalts="0.00" meanVehicleNumber="47.75" maxVehicleNumber="57" />
   <interval begin="600.00" end="660.00" id="mainline_up_0_2" sampledSeconds="4156.09" nVehEntered="29" nVehLeft="28" nVehSeen="98" meanSpeed="11.89" meanTimeLoss="1.82" meanOccupancy="17.26" maxOccupancy="18.00" meanMaxJamLengthInVehicles="0.00" meanMaxJamLengthInMeters="0.00" maxJamLengthInVehicles="0" maxJamLengthInMeters="0.00" jamLengthInVehiclesSum="0" jamLengthInMetersSum="0.00" meanHaltingDuration="0.00" maxHaltingDuration="0.00" haltingDurationSum="0.00" meanIntervalHaltingDuration="0.00" maxIntervalHaltingDuration="0.00" intervalHaltingDurationSum="0.00" startedHalts="0.00" meanVehicleNumber="69.60" maxVehicleNumber="73" />
   <interval begin="600.00" end="660.00" id="mainline_up_1_2" sampledSeconds="3988.12" nVehEntered="38" nVehLeft="36" nVehSeen="104" meanSpeed="11.92" meanTimeLoss="1.61" meanOccupancy="16.58" maxOccupancy="17.25" meanMaxJamLengthInVehicles="0.00" meanMaxJamLengthInMeters="0.00" maxJamLengthInVehicles="0" maxJamLengthInMeters="0.00" jamLengthInVehiclesSum="0" jamLengthInMetersSum="0.00" meanHaltingDuration="0.00" maxHaltingDuration="0.00" haltingDurationSum="0.00" meanIntervalHaltingDuration="0.00" maxIntervalHaltingDuration="0.00" intervalHaltingDurationSum="0.00" startedHalts="0.00" meanVehicleNumber="66.93" maxVehicleNumber="70" />
   <interval begin="600.00" end="660.00" id="mainline_up_2_2" sampledSeconds="3188.50" nVehEntered="32" nVehLeft="23" nVehSeen="82" meanSpeed="11.86" meanTimeLoss="1.77" meanOccupancy="13.27" maxOccupancy="14.92" meanMaxJamLengthInVehicles="0.00" meanMaxJamLengthInMeters="0.00" maxJamLengthInVehicles="0" maxJamLengthInMeters="0.00" jamLengthInVehiclesSum="0" jamLengthInMetersSum="0.00" meanHaltingDuration="0.00" maxHaltingDuration="0.00" haltingDurationSum="0.00" meanIntervalHaltingDuration="0.00" maxIntervalHaltingDuration="0.00" intervalHaltingDurationSum="0.00" startedHalts="0.00" meanVehicleNumber="53.52" maxVehicleNumber="60" />
   <interval begin="660.00" end="720.00" id="mainline_up_0_2" sampledSeconds="3933.31" nVehEntered="27" nVehLeft="35" nVehSeen="97" meanSpeed="15.03" meanTimeLoss="3.61" meanOccupancy="16.34" maxOccupancy="17.68" meanMaxJamLengthInVehicles="0.00" meanMaxJamLengthInMeters="0.00" maxJamLengthInVehicles="0" maxJamLengthInMeters="0.00" jamLengthInVehiclesSum="0" jamLengthInMetersSum="0.00" meanHaltingDuration="0.00" maxHaltingDuration="0.00" haltingDurationSum="0.00" meanIntervalHaltingDuration="0.00" maxIntervalHaltingDuration="0.00" intervalHaltingDurationSum="0.00" startedHalts="0.00" meanVehicleNumber="65.97" maxVehicleNumber="71" />
   <interval begin="660.00" end="720.00" id="mainline_up_1_2" sampledSeconds="4221.50" nVehEntered="35" nVehLeft="36" nVehSeen="103" meanSpeed="15.09" meanTimeLoss="3.91" meanOccupancy="17.56" maxOccupancy="18.25" meanMaxJamLengthInVehicles="0.00" meanMaxJamLengthInMeters="0.00" maxJamLengthInVehicles="0" maxJamLengthInMeters="0.00" jamLengthInVehiclesSum="0" jamLengthInMetersSum="0.00" meanHaltingDuration="0.00" maxHaltingDuration="0.00" haltingDurationSum="0.00" meanIntervalHaltingDuration="0.00" maxIntervalHaltingDuration="0.00" intervalHaltingDurationSum="0.00" startedHalts="0.00" meanVehicleNumber="70.75" maxVehicleNumber="74" />
   <interval begin="660.00" end="720.00" id="mainline_up_2_2" sampledSeconds="4079.20" nVehEntered="38" nVehLeft="27" nVehSeen="97" meanSpeed="15.32" meanTimeLoss="3.58" meanOccupancy="16.98" maxOccupancy="17.75" meanMaxJamLengthInVehicles="0.00" meanMaxJamLengthInMeters="0.00" maxJamLengthInVehicles="0" maxJamLengthInMeters="0.00" jamLengthInVehiclesSum="0" jamLengthInMetersSum="0.00" meanHaltingDuration="0.00" maxHaltingDuration="0.00" haltingDurationSum="0.00" meanIntervalHaltingDuration="0.00" maxIntervalHaltingDuration="0.00" intervalHaltingDurationSum="0.00" startedHalts="0.00" meanVehicleNumber="68.42" maxVehicleNumber="72" />
   <interval begin="720.00" end="780.00" id="mainline_up_0_2" sampledSeconds="3886.39" nVehEntered="36" nVehLeft="32" nVehSeen="98" meanSpeed="13.63" meanTimeLoss="7.95" meanOccupancy="16.13" maxOccupancy="17.02" meanMaxJamLengthInVehicles="0.68" meanMaxJamLengthInMeters="4.20" maxJamLengthInVehicles="3" maxJamLengthInMeters="22.45" jamLengthInVehiclesSum="50" jamLengthInMetersSum="299.06" meanHaltingDuration="1.72" maxHaltingDuration="4.00" haltingDurationSum="110.00" meanIntervalHaltingDuration="1.72" maxIntervalHaltingDuration="4.00" intervalHaltingDurationSum="110.00" startedHalts="66.00" meanVehicleNumber="65.07" maxVehicleNumber="69" />
   <interval begin="720.00" end="780.00" id="mainline_up_1_2" sampledSeconds="3763.79" nVehEntered="51" nVehLeft="58" nVehSeen="118" meanSpeed="15.58" meanTimeLoss="3.04" meanOccupancy="15.62" maxOccupancy="16.75" meanMaxJamLengthInVehicles="0.00" meanMaxJamLengthInMeters="0.00" maxJamLengthInVehicles="0" maxJamLengthInMeters="0.00" jamLengthInVehiclesSum="0" jamLengthInMetersSum="0.00" meanHaltingDuration="0.00" maxHaltingDuration="0.00" haltingDurationSum="0.00" meanIntervalHaltingDuration="0.00" maxIntervalHaltingDuration="0.00" intervalHaltingDurationSum="0.00" startedHalts="0.00" meanVehicleNumber="63.32" maxVehicleNumber="68" />
   <interval begin="720.00" end="780.00" id="mainline_up_2_2" sampledSeconds="4023.23" nVehEntered="39" nVehLeft="44" nVehSeen="109" meanSpeed="15.91" meanTimeLoss="3.14" meanOccupancy="16.72" maxOccupancy="18.00" meanMaxJamLengthInVehicles="0.00" meanMaxJamLengthInMeters="0.00" maxJamLengthInVehicles="0" maxJamLengthInMeters="0.00" jamLengthInVehiclesSum="0" jamLengthInMetersSum="0.00" meanHaltingDuration="0.00" maxHaltingDuration="0.00" haltingDurationSum="0.00" meanIntervalHaltingDuration="0.00" maxIntervalHaltingDuration="0.00" intervalHaltingDurationSum="0.00" startedHalts="0.00" meanVehicleNumber="67.63" maxVehicleNumber="73" />
   <interval begin="780.00" end="840.00" id="mainline_up_0_2" sampledSeconds="3904.47" nVehEntered="36" nVehLeft="44" nVehSeen="102" meanSpeed="13.61" meanTimeLoss="6.99" meanOccupancy="16.20" maxOccupancy="17.39" meanMaxJamLengthInVehicles="0.02" meanMaxJamLengthInMeters="0.08" maxJamLengthInVehicles="1" maxJamLengthInMeters="5.00" jamLengthInVehiclesSum="1" jamLengthInMetersSum="5.00" meanHaltingDuration="1.05" maxHaltingDuration="2.00" haltingDurationSum="19.00" meanIntervalHaltingDuration="1.00" maxIntervalHaltingDuration="2.00" intervalHaltingDurationSum="18.00" startedHalts="17.00" meanVehicleNumber="65.40" maxVehicleNumber="70" />
   <interval begin="780.00" end="840.00" id="mainline_up_1_2" sampledSeconds="3765.55" nVehEntered="71" nVehLeft="72" nVehSeen="131" meanSpeed="14.60" meanTimeLoss="4.11" meanOccupancy="15.63" maxOccupancy="17.00" meanMaxJamLengthInVehicles="0.00" meanMaxJamLengthInMeters="0.00" maxJamLengthInVehicles="0" maxJamLengthInMeters="0.00" jamLengthInVehiclesSum="0" jamLengthInMetersSum="0.00" meanHaltingDuration="0.00" maxHaltingDuration="0.00" haltingDurationSum="0.00" meanIntervalHaltingDuration="0.00" maxIntervalHaltingDuration="0.00" intervalHaltingDurationSum="0.00" startedHalts="0.00" meanVehicleNumber="63.35" maxVehicleNumber="69" />
   <interval begin="780.00" end="840.00" id="mainline_up_2_2" sampledSeconds="3429.40" nVehEntered="50" nVehLeft="56" nVehSeen="115" meanSpeed="15.41" meanTimeLoss="3.40" meanOccupancy="14.23" maxOccupancy="16.10" meanMaxJamLengthInVehicles="0.00" meanMaxJamLengthInMeters="0.00" maxJamLengthInVehicles="0" maxJamLengthInMeters="0.00" jamLengthInVehiclesSum="0" jamLengthInMetersSum="0.00" meanHaltingDuration="0.00" maxHaltingDuration="0.00" haltingDurationSum="0.00" meanIntervalHaltingDuration="0.00" maxIntervalHaltingDuration="0.00" intervalHaltingDurationSum="0.00" startedHalts="0.00" meanVehicleNumber="57.70" maxVehicleNumber="65" />
   <interval begin="840.00" end="900.00" id="mainline_up_0_2" sampledSeconds="3399.28" nVehEntered="35" nVehLeft="39" nVehSeen="93" meanSpeed="14.70" meanTimeLoss="7.31" meanOccupancy="14.09" maxOccupancy="15.50" meanMaxJamLengthInVehicles="0.35" meanMaxJamLengthInMeters="2.40" maxJamLengthInVehicles="3" maxJamLengthInMeters="22.51" jamLengthInVehiclesSum="21" jamLengthInMetersSum="144.22" meanHaltingDuration="2.80" maxHaltingDuration="4.00" haltingDurationSum="28.00" meanIntervalHaltingDuration="2.70" maxIntervalHaltingDuration="4.00" intervalHaltingDurationSum="27.00" startedHalts="10.00" meanVehicleNumber="56.97" maxVehicleNumber="63" />
   <interval begin="840.00" end="900.00" id="mainline_up_1_2" sampledSeconds="3582.04" nVehEntered="59" nVehLeft="62" nVehSeen="118" meanSpeed="16.50" meanTimeLoss="3.62" meanOccupancy="14.88" maxOccupancy="15.75" meanMaxJamLengthInVehicles="0.00" meanMaxJamLengthInMeters="0.00" maxJamLengthInVehicles="0" maxJamLengthInMeters="0.00" jamLengthInVehiclesSum="0" jamLengthInMetersSum="0.00" meanHaltingDuration="0.00" maxHaltingDuration="0.00" haltingDurationSum="0.00" meanIntervalHaltingDuration="0.00" maxIntervalHaltingDuration="0.00" intervalHaltingDurationSum="0.00" startedHalts="0.00" meanVehicleNumber="60.18" maxVehicleNumber="64" />
   <interval begin="840.00" end="900.00" id="mainline_up_2_2" sampledSeconds="3409.86" nVehEntered="44" nVehLeft="45" nVehSeen="103" meanSpeed="17.96" meanTimeLoss="1.77" meanOccupancy="14.16" maxOccupancy="15.25" meanMaxJamLengthInVehicles="0.00" meanMaxJamLengthInMeters="0.00" maxJamLengthInVehicles="0" maxJamLengthInMeters="0.00" jamLengthInVehiclesSum="0" jamLengthInMetersSum="0.00" meanHaltingDuration="0.00" maxHaltingDuration="0.00" haltingDurationSum="0.00" meanIntervalHaltingDuration="0.00" maxIntervalHaltingDuration="0.00" intervalHaltingDurationSum="0.00" startedHalts="0.00" meanVehicleNumber="57.30" maxVehicleNumber="62" />