<?xml version="1.0" encoding="UTF-8"?>

<!-- generated on 03/05/19 13:06:47 by Eclipse SUMO Version 1.0.1
<configuration xmlns:xsi="http://www.w3.org/2001/XMLSchema-instance" xsi:noNamespaceSchemaLocation="http://sumo.dlr.de/xsd/sumoConfiguration.xsd">

    <input>
        <net-file value="./Project/ramp.net.xml"/>
        <route-files value="./Project/ramp.rou.xml"/>
        <additional-files value="./Project/ramp.add.xml"/>
    </input>

    <time>
        <begin value="0"/>
    </time>

    <report>
        <verbose value="false"/>
        <no-step-log value="true"/>
    </report>

    <traci_server>
        <remote-port value="35123"/>
    </traci_server>

    <random_number>
        <seed value="1031317381"/>
    </random_number>

    <gui_only>
        <quit-on-end value="true"/>
        <start value="true"/>
    </gui_only>

</configuration>
-->

<detector xmlns:xsi="http://www.w3.org/2001/XMLSchema-instance" xsi:noNamespaceSchemaLocation="http://sumo.dlr.de/xsd/det_e2_file.xsd">
   <interval begin="0.00" end="60.00" id="mainline_up_0_2" sampledSeconds="367.75" nVehEntered="17" nVehLeft="2" nVehSeen="17" meanSpeed="21.40" meanTimeLoss="0.53" meanOccupancy="1.55" maxOccupancy="3.75" meanMaxJamLengthInVehicles="0.00" meanMaxJamLengthInMeters="0.00" maxJamLengthInVehicles="0" maxJamLengthInMeters="0.00" jamLengthInVehiclesSum="0" jamLengthInMetersSum="0.00" meanHaltingDuration="0.00" maxHaltingDuration="0.00" haltingDurationSum="0.00" meanIntervalHaltingDuration="0.00" maxIntervalHaltingDuration="0.00" intervalHaltingDurationSum="0.00" startedHalts="0.00" meanVehicleNumber="6.25" maxVehicleNumber="15" />
   <interval begin="0.00" end="60.00" id="mainline_up_1_2" sampledSeconds="191.85" nVehEntered="20" nVehLeft="9" nVehSeen="20" meanSpeed="22.14" meanTimeLoss="0.25" meanOccupancy="0.82" maxOccupancy="2.75" meanMaxJamLengthInVehicles="0.00" meanMaxJamLengthInMeters="0.00" maxJamLengthInVehicles="0" maxJamLengthInMeters="0.00" jamLengthInVehiclesSum="0" jamLengthInMetersSum="0.00" meanHaltingDuration="0.00" maxHaltingDuration="0.00" haltingDurationSum="0.00" meanIntervalHaltingDuration="0.00" maxIntervalHaltingDuration="0.00" intervalHaltingDurationSum="0.00" startedHalts="0.00" meanVehicleNumber="3.30" maxVehicleNumber="11" />
   <interval begin="0.00" end="60.00" id="mainline_up_2_2" sampledSeconds="295.44" nVehEntered="18" nVehLeft="3" nVehSeen="18" meanSpeed="23.97" meanTimeLoss="0.67" meanOccupancy="1.25" maxOccupancy="3.75" meanMaxJamLengthInVehicles="0.00" meanMaxJamLengthInMeters="0.00" maxJamLengthInVehicles="0" maxJamLengthInMeters="0.00" jamLengthInVehiclesSum="0" jamLengthInMetersSum="0.00" meanHaltingDuration="0.00" maxHaltingDuration="0.00" haltingDurationSum="0.00" meanIntervalHaltingDuration="0.00" maxIntervalHaltingDuration="0.00" intervalHaltingDurationSum="0.00" startedHalts="0.00" meanVehicleNumber="5.03" maxVehicleNumber="15" />
   <interval begin="60.00" end="120.00" id="mainline_up_0_2" sampledSeconds="1342.44" nVehEntered="33" nVehLeft="22" nVehSeen="48" meanSpeed="19.84" meanTimeLoss="1.57" meanOccupancy="5.61" maxOccupancy="7.25" meanMaxJamLengthInVehicles="0.00" meanMaxJamLengthInMeters="0.00" maxJamLengthInVehicles="0" maxJamLengthInMeters="0.00" jamLengthInVehiclesSum="0" jamLengthInMetersSum="0.00" meanHaltingDuration="0.00" maxHaltingDuration="0.00" haltingDurationSum="0.00" meanIntervalHaltingDuration="0.00" maxIntervalHaltingDuration="0.00" intervalHaltingDurationSum="0.00" startedHalts="0.00" meanVehicleNumber="22.57" maxVehicleNumber="29" />
   <interval begin="60.00" end="120.00" id="mainline_up_1_2" sampledSeconds="1599.74" nVehEntered="55" nVehLeft="32" nVehSeen="66" meanSpeed="20.70" meanTimeLoss="1.51" meanOccupancy="6.70" maxOccupancy="9.50" meanMaxJamLengthInVehicles="0.00" meanMaxJamLengthInMeters="0.00" maxJamLengthInVehicles="0" maxJamLengthInMeters="0.00" jamLengthInVehiclesSum="0" jamLengthInMetersSum="0.00" meanHaltingDuration="0.00" maxHaltingDuration="0.00" haltingDurationSum="0.00" meanIntervalHaltingDuration="0.00" maxIntervalHaltingDuration="0.00" intervalHaltingDurationSum="0.00" startedHalts="0.00" meanVehicleNumber="26.92" maxVehicleNumber="38" />
   <interval begin="60.00" end="120.00" id="mainline_up_2_2" sampledSeconds="1567.79" nVehEntered="40" nVehLeft="17" nVehSeen="55" meanSpeed="22.55" meanTimeLoss="1.45" meanOccupancy="6.56" maxOccupancy="9.75" meanMaxJamLengthInVehicles="0.00" meanMaxJamLengthInMeters="0.00" maxJamLengthInVehicles="0" maxJamLengthInMeters="0.00" jamLengthInVehiclesSum="0" jamLengthInMetersSum="0.00" meanHaltingDuration="0.00" maxHaltingDuration="0.00" haltingDurationSum="0.00" meanIntervalHaltingDuration="0.00" maxIntervalHaltingDuration="0.00" intervalHaltingDurationSum="0.00" startedHalts="0.00" meanVehicleNumber="26.33" maxVehicleNumber="39" />
   <interval begin="120.00" end="180.00" id="mainline_up_0_2" sampledSeconds="1781.53" nVehEntered="31" nVehLeft="25" nVehSeen="57" meanSpeed="18.84" meanTimeLoss="2.14" meanOccupancy="7.43" maxOccupancy="8.50" meanMaxJamLengthInVehicles="0.00" meanMaxJamLengthInMeters="0.00" maxJamLengthInVehicles="0" maxJamLengthInMeters="0.00" jamLengthInVehiclesSum="0" jamLengthInMetersSum="0.00" meanHaltingDuration="0.00" maxHaltingDuration="0.00" haltingDurationSum="0.00" meanIntervalHaltingDuration="0.00" maxIntervalHaltingDuration="0.00" intervalHaltingDurationSum="0.00" startedHalts="0.00" meanVehicleNumber="29.97" maxVehicleNumber="35" />
   <interval begin="120.00" end="180.00" id="mainline_up_1_2" sampledSeconds="2397.22" nVehEntered="50" nVehLeft="37" nVehSeen="84" meanSpeed="19.79" meanTimeLoss="2.56" meanOccupancy="9.99" maxOccupancy="11.75" meanMaxJamLengthInVehicles="0.00" meanMaxJamLengthInMeters="0.00" maxJamLengthInVehicles="0" maxJamLengthInMeters="0.00" jamLengthInVehiclesSum="0" jamLengthInMetersSum="0.00" meanHaltingDuration="0.00" maxHaltingDuration="0.00" haltingDurationSum="0.00" meanIntervalHaltingDuration="0.00" maxIntervalHaltingDuration="0.00" intervalHaltingDurationSum="0.00" startedHalts="0.00" meanVehicleNumber="40.38" maxVehicleNumber="48" />
   <interval begin="120.00" end="180.00" id="mainline_up_2_2" sampledSeconds="2826.85" nVehEntered="38" nVehLeft="24" nVehSeen="76" meanSpeed="20.94" meanTimeLoss="3.50" meanOccupancy="11.78" maxOccupancy="13.46" meanMaxJamLengthInVehicles="0.00" meanMaxJamLengthInMeters="0.00" maxJamLengthInVehicles="0" maxJamLengthInMeters="0.00" jamLengthInVehiclesSum="0" jamLengthInMetersSum="0.00" meanHaltingDuration="0.00" maxHaltingDuration="0.00" haltingDurationSum="0.00" meanIntervalHaltingDuration="0.00" maxIntervalHaltingDuration="0.00" intervalHaltingDurationSum="0.00" startedHalts="0.00" meanVehicleNumber="47.48" maxVehicleNumber="54" />
   <interval begin="180.00" end="240.00" id="mainline_up_0_2" sampledSeconds="2467.55" nVehEntered="45" nVehLeft="22" nVehSeen="77" meanSpeed="14.74" meanTimeLoss="2.41" meanOccupancy="10.27" maxOccupancy="14.00" meanMaxJamLengthInVehicles="0.00" meanMaxJamLengthInMeters="0.00" maxJamLengthInVehicles="0" maxJamLengthInMeters="0.00" jamLengthInVehiclesSum="0" jamLengthInMetersSum="0.00" meanHaltingDuration="0.00" maxHaltingDuration="0.00" haltingDurationSum="0.00" meanIntervalHaltingDuration="0.00" maxIntervalHaltingDuration="0.00" intervalHaltingDurationSum="0.00" startedHalts="0.00" meanVehicleNumber="41.42" maxVehicleNumber="56" />
   <interval begin="180.00" end="240.00" id="mainline_up_1_2" sampledSeconds="2894.89" nVehEntered="62" nVehLeft="57" nVehSeen="109" meanSpeed="15.57" meanTimeLoss="2.15" meanOccupancy="12.04" maxOccupancy="13.62" meanMaxJamLengthInVehicles="0.00" meanMaxJamLengthInMeters="0.00" maxJamLengthInVehicles="0" maxJamLengthInMeters="0.00" jamLengthInVehiclesSum="0" jamLengthInMetersSum="0.00" meanHaltingDuration="0.00" maxHaltingDuration="0.00" haltingDurationSum="0.00" meanIntervalHaltingDuration="0.00" maxIntervalHaltingDuration="0.00" intervalHaltingDurationSum="0.00" startedHalts="0.00" meanVehicleNumber="48.67" maxVehicleNumber="55" />
   <interval begin="180.00" end="240.00" id="mainline_up_2_2" sampledSeconds="2523.04" nVehEntered="32" nVehLeft="46" nVehSeen="84" meanSpeed="16.57" meanTimeLoss="2.43" meanOccupancy="10.50" maxOccupancy="12.75" meanMaxJamLengthInVehicles="0.00" meanMaxJamLengthInMeters="0.00" maxJamLengthInVehicles="0" maxJamLengthInMeters="0.00" jamLengthInVehiclesSum="0" jamLengthInMetersSum="0.00" meanHaltingDuration="0.00" maxHaltingDuration="0.00" haltingDurationSum="0.00" meanIntervalHaltingDuration="0.00" maxIntervalHaltingDuration="0.00" intervalHaltingDurationSum="0.00" startedHalts="0.00" meanVehicleNumber="42.48" maxVehicleNumber="52" />
   <interval begin="240.00" end="300.00" id="mainline_up_0_2" sampledSeconds="3472.91" nVehEntered="38" nVehLeft="31" nVehSeen="93" meanSpeed="14.89" meanTimeLoss="1.68" meanOccupancy="14.45" maxOccupancy="15.50" meanMaxJamLengthInVehicles="0.00" meanMaxJamLengthInMeters="0.00" maxJamLengthInVehicles="0" maxJamLengthInMeters="0.00" jamLengthInVehiclesSum="0" jamLengthInMetersSum="0.00" meanHaltingDuration="0.00" maxHaltingDuration="0.00" haltingDurationSum="0.00" meanIntervalHaltingDuration="0.00" maxIntervalHaltingDuration="0.00" intervalHaltingDurationSum="0.00" startedHalts="0.00" meanVehicleNumber="58.25" maxVehicleNumber="63" />
   <interval begin="240.00" end="300.00" id="mainline_up_1_2" sampledSeconds="3266.69" nVehEntered="50" nVehLeft="41" nVehSeen="102" meanSpeed="15.07" meanTimeLoss="1.23" meanOccupancy="13.58" maxOccupancy="15.25" meanMaxJamLengthInVehicles="0.00" meanMaxJamLengthInMeters="0.00" maxJamLengthInVehicles="0" maxJamLengthInMeters="0.00" jamLengthInVehiclesSum="0" jamLengthInMetersSum="0.00" meanHaltingDuration="0.00" maxHaltingDuration="0.00" haltingDurationSum="0.00" meanIntervalHaltingDuration="0.00" maxIntervalHaltingDuration="0.00" intervalHaltingDurationSum="0.00" startedHalts="0.00" meanVehicleNumber="54.85" maxVehicleNumber="62" />
   <interval begin="240.00" end="300.00" id="mainline_up_2_2" sampledSeconds="2503.01" nVehEntered="31" nVehLeft="22" nVehSeen="69" meanSpeed="15.18" meanTimeLoss="1.40" meanOccupancy="10.43" maxOccupancy="11.75" meanMaxJamLengthInVehicles="0.00" meanMaxJamLengthInMeters="0.00" maxJamLengthInVehicles="0" maxJamLengthInMeters="0.00" jamLengthInVehiclesSum="0" jamLengthInMetersSum="0.00" meanHaltingDuration="0.00" maxHaltingDuration="0.00" haltingDurationSum="0.00" meanIntervalHaltingDuration="0.00" maxIntervalHaltingDuration="0.00" intervalHaltingDurationSum="0.00" startedHalts="0.00" meanVehicleNumber="42.02" maxVehicleNumber="47" />
   <interval begin="300.00" end="360.00" id="mainline_up_0_2" sampledSeconds="3876.60" nVehEntered="37" nVehLeft="32" nVehSeen="99" meanSpeed="13.01" meanTimeLoss="2.39" meanOccupancy="16.12" maxOccupancy="17.00" meanMaxJamLengthInVehicles="0.00" meanMaxJamLengthInMeters="0.00" maxJamLengthInVehicles="0" maxJamLengthInMeters="0.00" jamLengthInVehiclesSum="0" jamLengthInMetersSum="0.00" meanHaltingDuration="0.00" maxHaltingDuration="0.00" haltingDurationSum="0.00" meanIntervalHaltingDuration="0.00" maxIntervalHaltingDuration="0.00" intervalHaltingDurationSum="0.00" startedHalts="0.00" meanVehicleNumber="65.08" maxVehicleNumber="68" />
   <interval begin="300.00" end="360.00" id="mainline_up_1_2" sampledSeconds="3964.12" nVehEntered="45" nVehLeft="39" nVehSeen="106" meanSpeed="13.16" meanTimeLoss="2.28" meanOccupancy="16.50" maxOccupancy="17.69" meanMaxJamLengthInVehicles="0.00" meanMaxJamLengthInMeters="0.00" maxJamLengthInVehicles="0" maxJamLengthInMeters="0.00" jamLengthInVehiclesSum="0" jamLengthInMetersSum="0.00" meanHaltingDuration="0.00" maxHaltingDuration="0.00" haltingDurationSum="0.00" meanIntervalHaltingDuration="0.00" maxIntervalHaltingDuration="0.00" intervalHaltingDurationSum="0.00" startedHalts="0.00" meanVehicleNumber="66.50" maxVehicleNumber="71" />
   <interval begin="300.00" end="360.00" id="mainline_up_2_2" sampledSeconds="3145.62" nVehEntered="30" nVehLeft="21" nVehSeen="77" meanSpeed="13.31" meanTimeLoss="2.46" meanOccupancy="13.11" maxOccupancy="14.75" meanMaxJamLengthInVehicles="0.00" meanMaxJamLengthInMeters="0.00" maxJamLengthInVehicles="0" maxJamLengthInMeters="0.00" jamLengthInVehiclesSum="0" jamLengthInMetersSum="0.00" meanHaltingDuration="0.00" maxHaltingDuration="0.00" haltingDurationSum="0.00" meanIntervalHaltingDuration="0.00" maxIntervalHaltingDuration="0.00" intervalHaltingDurationSum="0.00" startedHalts="0.00" meanVehicleNumber="52.70" maxVehicleNumber="60" />
   <interval begin="360.00" end="420.00" id="mainline_up_0_2" sampledSeconds="3687.38" nVehEntered="31" nVehLeft="45" nVehSeen="98" meanSpeed="15.49" meanTimeLoss="4.42" meanOccupancy="15.32" maxOccupancy="16.99" meanMaxJamLengthInVehicles="0.00" meanMaxJamLengthInMeters="0.00" maxJamLengthInVehicles="0" maxJamLengthInMeters="0.00" jamLengthInVehiclesSum="0" jamLengthInMetersSum="0.00" meanHaltingDuration="0.00" maxHaltingDuration="0.00" haltingDurationSum="0.00" meanIntervalHaltingDuration="0.00" maxIntervalHaltingDuration="0.00" intervalHaltingDurationSum="0.00" startedHalts="0.00" meanVehicleNumber="61.82" maxVehicleNumber="68" />
   <interval begin="360.00" end="420.00" id="mainline_up_1_2" sampledSeconds="3851.57" nVehEntered="49" nVehLeft="50" nVehSeen="116" meanSpeed="16.04" meanTimeLoss="3.40" meanOccupancy="15.99" maxOccupancy="17.00" meanMaxJamLengthInVehicles="0.00" meanMaxJamLengthInMeters="0.00" maxJamLengthInVehicles="0" maxJamLengthInMeters="0.00" jamLengthInVehiclesSum="0" jamLengthInMetersSum="0.00" meanHaltingDuration="0.00" maxHaltingDuration="0.00" haltingDurationSum="0.00" meanIntervalHaltingDuration="0.00" maxIntervalHaltingDuration="0.00" intervalHaltingDurationSum="0.00" startedHalts="0.00" meanVehicleNumber="64.67" maxVehicleNumber="68" />
   <interval begin="360.00" end="420.00" id="mainline_up_2_2" sampledSeconds="3632.38" nVehEntered="39" nVehLeft="32" nVehSeen="95" meanSpeed="16.79" meanTimeLoss="3.02" meanOccupancy="15.09" maxOccupancy="16.23" meanMaxJamLengthInVehicles="0.00" meanMaxJamLengthInMeters="0.00" maxJamLengthInVehicles="0" maxJamLengthInMeters="0.00" jamLengthInVehiclesSum="0" jamLengthInMetersSum="0.00" meanHaltingDuration="0.00" maxHaltingDuration="0.00" haltingDurationSum="0.00" meanIntervalHaltingDuration="0.00" maxIntervalHaltingDuration="0.00" intervalHaltingDurationSum="0.00" startedHalts="0.00" meanVehicleNumber="60.98" maxVehicleNumber="66" />
   <interval begin="420.00" end="480.00" id="mainline_up_0_2" sampledSeconds="3268.63" nVehEntered="54" nVehLeft="39" nVehSeen="107" meanSpeed="14.11" meanTimeLoss="5.70" meanOccupancy="13.57" maxOccupancy="17.16" meanMaxJamLengthInVehicles="0.12" meanMaxJamLengthInMeters="0.55" maxJamLengthInVehicles="2" maxJamLengthInMeters="14.10" jamLengthInVehiclesSum="7" jamLengthInMetersSum="32.89" meanHaltingDuration="1.35" maxHaltingDuration="3.00" haltingDurationSum="23.00" meanIntervalHaltingDuration="1.35" maxIntervalHaltingDuration="3.00" intervalHaltingDurationSum="23.00" startedHalts="18.00" meanVehicleNumber="54.90" maxVehicleNumber="70" />
   <interval begin="420.00" end="480.00" id="mainline_up_1_2" sampledSeconds="3717.15" nVehEntered="62" nVehLeft="68" nVehSeen="128" meanSpeed="16.15" meanTimeLoss="2.69" meanOccupancy="15.43" maxOccupancy="16.62" meanMaxJamLengthInVehicles="0.00" meanMaxJamLengthInMeters="0.00" maxJamLengthInVehicles="0" maxJamLengthInMeters="0.00" jamLengthInVehiclesSum="0" jamLengthInMetersSum="0.00" meanHaltingDuration="0.00" maxHaltingDuration="0.00" haltingDurationSum="0.00" meanIntervalHaltingDuration="0.00" maxIntervalHaltingDuration="0.00" intervalHaltingDurationSum="0.00" startedHalts="0.00" meanVehicleNumber="62.42" maxVehicleNumber="67" />
   <interval begin="420.00" end="480.00" id="mainline_up_2_2" sampledSeconds="3622.00" nVehEntered="33" nVehLeft="49" nVehSeen="96" meanSpeed="16.90" meanTimeLoss="2.52" meanOccupancy="15.03" maxOccupancy="16.50" meanMaxJamLengthInVehicles="0.00" meanMaxJamLengthInMeters="0.00" maxJamLengthInVehicles="0" maxJamLengthInMeters="0.00" jamLengthInVehiclesSum="0" jamLengthInMetersSum="0.00" meanHaltingDuration="0.00" maxHaltingDuration="0.00" haltingDurationSum="0.00" meanIntervalHaltingDuration="0.00" maxIntervalHaltingDuration="0.00" intervalHaltingDurationSum="0.00" startedHalts="0.00" meanVehicleNumber="60.87" maxVehicleNumber="67" />
   <interval begin="480.00" end="540.00" id="mainline_up_0_2" sampledSeconds="3894.52" nVehEntered="34" nVehLeft="37" nVehSeen="102" meanSpeed="12.80" meanTimeLoss="4.35" meanOccupancy="16.15" maxOccupancy="17.25" meanMaxJamLengthInVehicles="0.57" meanMaxJamLengthInMeters="3.68" maxJamLengthInVehicles="3" maxJamLengthInMeters="21.65" jamLengthInVehiclesSum="34" jamLengthInMetersSum="220.99" meanHaltingDuration="6.50" maxHaltingDuration="11.00" haltingDurationSum="26.00" meanIntervalHaltingDuration="6.50" maxIntervalHaltingDuration="11.00" intervalHaltingDurationSum="26.00" startedHalts="6.00" meanVehicleNumber="65.22" maxVehicleNumber="69" />
   <interval begin="480.00" end="540.00" id="mainline_up_1_2" sampledSeconds="3735.70" nVehEntered="54" nVehLeft="51" nVehSeen="114" meanSpeed="13.66" meanTimeLoss="2.22" meanOccupancy="15.51" maxOccupancy="16.50" meanMaxJamLengthInVehicles="0.00" meanMaxJamLengthInMeters="0.00" maxJamLengthInVehicles="0" maxJamLengthInMeters="0.00" jamLengthInVehiclesSum="0" jamLengthInMetersSum="0.00" meanHaltingDuration="0.00" maxHaltingDuration="0.00" haltingDurationSum="0.00" meanIntervalHaltingDuration="0.00" maxIntervalHaltingDuration="0.00" intervalHaltingDurationSum="0.00" startedHalts="0.00" meanVehicleNumber="62.72" maxVehicleNumber="67" />
   <interval begin="480.00" end="540.00" id="mainline_up_2_2" sampledSeconds="2622.96" nVehEntered="37" nVehLeft="40" nVehSeen="84" meanSpeed="14.09" meanTimeLoss="1.64" meanOccupancy="10.88" maxOccupancy="12.00" meanMaxJamLengthInVehicles="0.00" meanMaxJamLengthInMeters="0.00" maxJamLengthInVehicles="0" maxJamLengthInMeters="0.00" jamLengthInVehiclesSum="0" jamLengthInMetersSum="0.00" meanHaltingDuration="0.00" maxHaltingDuration="0.00" haltingDurationSum="0.00" meanIntervalHaltingDuration="0.00" maxIntervalHaltingDuration="0.00" intervalHaltingDurationSum="0.00" startedHalts="0.00" meanVehicleNumber="44.13" maxVehicleNumber="49" />
   <interval begin="540.00" end="600.00" id="mainline_up_0_2" sampledSeconds="3664.08" nVehEntered="50" nVehLeft="55" nVehSeen="115" meanSpeed="15.25" meanTimeLoss="5.35" meanOccupancy="15.22" maxOccupancy="16.75" meanMaxJamLengthInVehicles="0.03" meanMaxJamLengthInMeters="0.14" maxJamLengthInVehicles="1" maxJamLengthInMeters="4.93" jamLengthInVehiclesSum="2" jamLengthInMetersSum="8.59" meanHaltingDuration="1.40" maxHaltingDuration="3.00" haltingDurationSum="7.00" meanIntervalHaltingDuration="1.40" maxIntervalHaltingDuration="3.00" intervalHaltingDurationSum="7.00" startedHalts="5.00" meanVehicleNumber="61.43" maxVehicleNumber="67" />
   <interval begin="540.00" end="600.00" id="mainline_up_1_2" sampledSeconds="3650.26" nVehEntered="70" nVehLeft="72" nVehSeen="133" meanSpeed="17.07" meanTimeLoss="2.49" meanOccupancy="15.17" maxOccupancy="16.50" meanMaxJamLengthInVehicles="0.00" meanMaxJamLengthInMeters="0.00" maxJamLengthInVehicles="0" maxJamLengthInMeters="0.00" jamLengthInVehiclesSum="0" jamLengthInMetersSum="0.00" meanHaltingDuration="0.00" maxHaltingDuration="0.00" haltingDurationSum="0.00" meanIntervalHaltingDuration="0.00" maxIntervalHaltingDuration="0.00" intervalHaltingDurationSum="0.00" startedHalts="0.00" meanVehicleNumber="61.25" maxVehicleNumber="66" />
   <interval begin="540.00" end="600.00" id="mainline_up_2_2" sampledSeconds="3125.77" nVehEntered="52" nVehLeft="43" nVehSeen="96" meanSpeed="17.99" meanTimeLoss="1.74" meanOccupancy="12.97" maxOccupancy="14.00" meanMaxJamLengthInVehicles="0.00" meanMaxJamLengthInMeters="0.00" maxJamLengthInVehicles="0" maxJamLengthInMeters="0.00" jamLengthInVehiclesSum="0" jamLengthInMetersSum="0.00" meanHaltingDuration="0.00" maxHaltingDuration="0.00" haltingDurationSum="0.00" meanIntervalHaltingDuration="0.00" maxIntervalHaltingDuration="0.00" intervalHaltingDurationSum="0.00" startedHalts="0.00" meanVehicleNumber="52.63" maxVehicleNumber="57" />
   <interval begin="600.00" end="660.00" id="mainline_up_0_2" sampledSeconds="3382.05" nVehEntered="39" nVehLeft="42" nVehSeen="99" meanSpeed="15.00" meanTimeLoss="7.42" meanOccupancy="14.03" maxOccupancy="15.41" meanMaxJamLengthInVehicles="0.67" meanMaxJamLengthInMeters="4.99" maxJamLengthInVehicles="8" maxJamLengthInMeters="62.24" jamLengthInVehiclesSum="40" jamLengthInMetersSum="299.51" meanHaltingDuration="5.00" maxHaltingDuration="9.00" haltingDurationSum="50.00" meanIntervalHaltingDuration="5.00" maxIntervalHaltingDuration="9.00" intervalHaltingDurationSum="50.00" startedHalts="10.00" meanVehicleNumber="56.70" maxVehicleNumber="62" />
   <interval begin="600.00" end="660.00" id="mainline_up_1_2" sampledSeconds="3628.97" nVehEntered="63" nVehLeft="71" nVehSeen="124" meanSpeed="16.37" meanTimeLoss="4.89" meanOccupancy="15.07" maxOccupancy="16.25" meanMaxJamLengthInVehicles="0.00" meanMaxJamLengthInMeters="0.00" maxJamLengthInVehicles="0" maxJamLengthInMeters="0.00" jamLengthInVehiclesSum="0" jamLengthInMetersSum="0.00" meanHaltingDuration="0.00" maxHaltingDuration="0.00" haltingDurationSum="0.00" meanIntervalHaltingDuration="0.00" maxIntervalHaltingDuration="0.00" intervalHaltingDurationSum="0.00" startedHalts="0.00" meanVehicleNumber="61.05" maxVehicleNumber="65" />
   <interval begin="600.00" end="660.00" id="mainline_up_2_2" sampledSeconds="3275.43" nVehEntered="45" nVehLeft="46" nVehSeen="98" meanSpeed="18.31" meanTimeLoss="2.81" meanOccupancy="13.58" maxOccupancy="14.75" meanMaxJamLengthInVehicles="0.00" meanMaxJamLengthInMeters="0.00" maxJamLengthInVehicles="0" maxJamLengthInMeters="0.00" jamLengthInVehiclesSum="0" jamLengthInMetersSum="0.00" meanHaltingDuration="0.00" maxHaltingDuration="0.00" haltingDurationSum="0.00" meanIntervalHaltingDuration="0.00" maxIntervalHaltingDuration="0.00" intervalHaltingDurationSum="0.00" startedHalts="0.00" meanVehicleNumber="55.05" maxVehicleNumber="59" />
   <interval begin="660.00" end="720.00" id="mainline_up_0_2" sampledSeconds="3572.10" nVehEntered="39" nVehLeft="37" nVehSeen="96" meanSpeed="13.22" meanTimeLoss="6.47" meanOccupancy="14.83" maxOccupancy="15.50" meanMaxJamLengthInVehicles="0.17" meanMaxJamLengthInMeters="1.20" maxJamLengthInVehicles="6" maxJamLengthInMeters="45.70" jamLengthInVehiclesSum="10" jamLengthInMetersSum="71.70" meanHaltingDuration="4.09" maxHaltingDuration="10.00" haltingDurationSum="45.00" meanIntervalHaltingDuration="1.18" maxIntervalHaltingDuration="3.00" intervalHaltingDurationSum="13.00" startedHalts="6.00" meanVehicleNumber="59.92" maxVehicleNumber="63" />
   <interval begin="660.00" end="720.00" id="mainline_up_1_2" sampledSeconds="3352.23" nVehEntered="58" nVehLeft="53" nVehSeen="111" meanSpeed="14.10" meanTimeLoss="3.91" meanOccupancy="13.92" maxOccupancy="15.10" meanMaxJamLengthInVehicles="0.00" meanMaxJamLengthInMeters="0.00" maxJamLengthInVehicles="0" maxJamLengthInMeters="0.00" jamLengthInVehiclesSum="0" jamLengthInMetersSum="0.00" meanHaltingDuration="0.00" maxHaltingDuration="0.00" haltingDurationSum="0.00" meanIntervalHaltingDuration="0.00" maxIntervalHaltingDuration="0.00" intervalHaltingDurationSum="0.00" startedHalts="0.00" meanVehicleNumber="56.38" maxVehicleNumber="61" />
   <interval begin="660.00" end="720.00" id="mainline_up_2_2" sampledSeconds="2787.20" nVehEntered="39" nVehLeft="46" nVehSeen="91" meanSpeed="15.86" meanTimeLoss="1.40" meanOccupancy="11.57" maxOccupancy="13.44" meanMaxJamLengthInVehicles="0.00" meanMaxJamLengthInMeters="0.00" maxJamLengthInVehicles="0" maxJamLengthInMeters="0.00" jamLengthInVehiclesSum="0" jamLengthInMetersSum="0.00" meanHaltingDuration="0.00" maxHaltingDuration="0.00" haltingDurationSum="0.00" meanIntervalHaltingDuration="0.00" maxIntervalHaltingDuration="0.00" intervalHaltingDurationSum="0.00" startedHalts="0.00" meanVehicleNumber="47.00" maxVehicleNumber="55" />
   <interval begin="720.00" end="780.00" id="mainline_up_0_2" sampledSeconds="3219.32" nVehEntered="37" nVehLeft="44" nVehSeen="96" meanSpeed="16.04" meanTimeLoss="3.78" meanOccupancy="13.37" maxOccupancy="14.75" meanMaxJamLengthInVehicles="0.02" meanMaxJamLengthInMeters="0.08" maxJamLengthInVehicles="1" maxJamLengthInMeters="5.00" jamLengthInVehiclesSum="1" jamLengthInMetersSum="5.00" meanHaltingDuration="1.20" maxHaltingDuration="2.00" haltingDurationSum="6.00" meanIntervalHaltingDuration="1.20" maxIntervalHaltingDuration="2.00" intervalHaltingDurationSum="6.00" startedHalts="5.00" meanVehicleNumber="54.03" maxVehicleNumber="60" />
   <interval begin="720.00" end="780.00" id="mainline_up_1_2" sampledSeconds="3270.11" nVehEntered="58" nVehLeft="58" nVehSeen="116" meanSpeed="16.51" meanTimeLoss="2.77" meanOccupancy="13.58" maxOccupancy="15.25" meanMaxJamLengthInVehicles="0.00" meanMaxJamLengthInMeters="0.00" maxJamLengthInVehicles="0" maxJamLengthInMeters="0.00" jamLengthInVehiclesSum="0" jamLengthInMetersSum="0.00" meanHaltingDuration="0.00" maxHaltingDuration="0.00" haltingDurationSum="0.00" meanIntervalHaltingDuration="0.00" maxIntervalHaltingDuration="0.00" intervalHaltingDurationSum="0.00" startedHalts="0.00" meanVehicleNumber="54.97" maxVehicleNumber="62" />
   <interval begin="720.00" end="780