<?xml version="1.0" encoding="UTF-8"?>

<!-- generated on 03/06/19 16:04:33 by Eclipse SUMO Version 1.0.1
<configuration xmlns:xsi="http://www.w3.org/2001/XMLSchema-instance" xsi:noNamespaceSchemaLocation="http://sumo.dlr.de/xsd/sumoConfiguration.xsd">

    <input>
        <net-file value="./project/ramp.net.xml"/>
        <route-files value="./project/ramp.rou.xml"/>
        <additional-files value="./project/ramp.add.xml"/>
    </input>

    <time>
        <begin value="0"/>
    </time>

    <report>
        <verbose value="false"/>
        <no-step-log value="true"/>
    </report>

    <traci_server>
        <remote-port value="49647"/>
    </traci_server>

    <random_number>
        <seed value="104743109"/>
    </random_number>

    <gui_only>
        <quit-on-end value="true"/>
        <start value="true"/>
    </gui_only>

</configuration>
-->

<detector xmlns:xsi="http://www.w3.org/2001/XMLSchema-instance" xsi:noNamespaceSchemaLocation="http://sumo.dlr.de/xsd/det_e2_file.xsd">
   <interval begin="0.00" end="60.00" id="mainline_up_0_2" sampledSeconds="250.45" nVehEntered="15" nVehLeft="2" nVehSeen="15" meanSpeed="21.32" meanTimeLoss="0.40" meanOccupancy="1.06" maxOccupancy="3.25" meanMaxJamLengthInVehicles="0.00" meanMaxJamLengthInMeters="0.00" maxJamLengthInVehicles="0" maxJamLengthInMeters="0.00" jamLengthInVehiclesSum="0" jamLengthInMetersSum="0.00" meanHaltingDuration="0.00" maxHaltingDuration="0.00" haltingDurationSum="0.00" meanIntervalHaltingDuration="0.00" maxIntervalHaltingDuration="0.00" intervalHaltingDurationSum="0.00" startedHalts="0.00" meanVehicleNumber="4.30" maxVehicleNumber="13" />
   <interval begin="0.00" end="60.00" id="mainline_up_1_2" sampledSeconds="230.47" nVehEntered="18" nVehLeft="7" nVehSeen="18" meanSpeed="22.59" meanTimeLoss="0.31" meanOccupancy="0.99" maxOccupancy="2.75" meanMaxJamLengthInVehicles="0.00" meanMaxJamLengthInMeters="0.00" maxJamLengthInVehicles="0" maxJamLengthInMeters="0.00" jamLengthInVehiclesSum="0" jamLengthInMetersSum="0.00" meanHaltingDuration="0.00" maxHaltingDuration="0.00" haltingDurationSum="0.00" meanIntervalHaltingDuration="0.00" maxIntervalHaltingDuration="0.00" intervalHaltingDurationSum="0.00" startedHalts="0.00" meanVehicleNumber="3.97" maxVehicleNumber="11" />
   <interval begin="0.00" end="60.00" id="mainline_up_2_2" sampledSeconds="129.46" nVehEntered="13" nVehLeft="2" nVehSeen="13" meanSpeed="24.07" meanTimeLoss="0.23" meanOccupancy="0.55" maxOccupancy="2.75" meanMaxJamLengthInVehicles="0.00" meanMaxJamLengthInMeters="0.00" maxJamLengthInVehicles="0" maxJamLengthInMeters="0.00" jamLengthInVehiclesSum="0" jamLengthInMetersSum="0.00" meanHaltingDuration="0.00" maxHaltingDuration="0.00" haltingDurationSum="0.00" meanIntervalHaltingDuration="0.00" maxIntervalHaltingDuration="0.00" intervalHaltingDurationSum="0.00" startedHalts="0.00" meanVehicleNumber="2.23" maxVehicleNumber="11" />
   <interval begin="60.00" end="120.00" id="mainline_up_0_2" sampledSeconds="1092.99" nVehEntered="31" nVehLeft="20" nVehSeen="44" meanSpeed="19.68" meanTimeLoss="1.02" meanOccupancy="4.58" maxOccupancy="6.25" meanMaxJamLengthInVehicles="0.00" meanMaxJamLengthInMeters="0.00" maxJamLengthInVehicles="0" maxJamLengthInMeters="0.00" jamLengthInVehiclesSum="0" jamLengthInMetersSum="0.00" meanHaltingDuration="0.00" maxHaltingDuration="0.00" haltingDurationSum="0.00" meanIntervalHaltingDuration="0.00" maxIntervalHaltingDuration="0.00" intervalHaltingDurationSum="0.00" startedHalts="0.00" meanVehicleNumber="18.45" maxVehicleNumber="25" />
   <interval begin="60.00" end="120.00" id="mainline_up_1_2" sampledSeconds="1539.27" nVehEntered="48" nVehLeft="23" nVehSeen="59" meanSpeed="21.13" meanTimeLoss="1.43" meanOccupancy="6.45" maxOccupancy="9.25" meanMaxJamLengthInVehicles="0.00" meanMaxJamLengthInMeters="0.00" maxJamLengthInVehicles="0" maxJamLengthInMeters="0.00" jamLengthInVehiclesSum="0" jamLengthInMetersSum="0.00" meanHaltingDuration="0.00" maxHaltingDuration="0.00" haltingDurationSum="0.00" meanIntervalHaltingDuration="0.00" maxIntervalHaltingDuration="0.00" intervalHaltingDurationSum="0.00" startedHalts="0.00" meanVehicleNumber="25.90" maxVehicleNumber="37" />
   <interval begin="60.00" end="120.00" id="mainline_up_2_2" sampledSeconds="1694.11" nVehEntered="40" nVehLeft="7" nVehSeen="51" meanSpeed="22.23" meanTimeLoss="2.39" meanOccupancy="7.11" maxOccupancy="11.25" meanMaxJamLengthInVehicles="0.00" meanMaxJamLengthInMeters="0.00" maxJamLengthInVehicles="0" maxJamLengthInMeters="0.00" jamLengthInVehiclesSum="0" jamLengthInMetersSum="0.00" meanHaltingDuration="0.00" maxHaltingDuration="0.00" haltingDurationSum="0.00" meanIntervalHaltingDuration="0.00" maxIntervalHaltingDuration="0.00" intervalHaltingDurationSum="0.00" startedHalts="0.00" meanVehicleNumber="28.48" maxVehicleNumber="45" />
   <interval begin="120.00" end="180.00" id="mainline_up_0_2" sampledSeconds="1718.40" nVehEntered="34" nVehLeft="26" nVehSeen="58" meanSpeed="18.12" meanTimeLoss="2.84" meanOccupancy="7.17" maxOccupancy="8.50" meanMaxJamLengthInVehicles="0.00" meanMaxJamLengthInMeters="0.00" maxJamLengthInVehicles="0" maxJamLengthInMeters="0.00" jamLengthInVehiclesSum="0" jamLengthInMetersSum="0.00" meanHaltingDuration="0.00" maxHaltingDuration="0.00" haltingDurationSum="0.00" meanIntervalHaltingDuration="0.00" maxIntervalHaltingDuration="0.00" intervalHaltingDurationSum="0.00" startedHalts="0.00" meanVehicleNumber="28.90" maxVehicleNumber="34" />
   <interval begin="120.00" end="180.00" id="mainline_up_1_2" sampledSeconds="2536.44" nVehEntered="54" nVehLeft="46" nVehSeen="90" meanSpeed="20.28" meanTimeLoss="2.33" meanOccupancy="10.55" maxOccupancy="11.75" meanMaxJamLengthInVehicles="0.00" meanMaxJamLengthInMeters="0.00" maxJamLengthInVehicles="0" maxJamLengthInMeters="0.00" jamLengthInVehiclesSum="0" jamLengthInMetersSum="0.00" meanHaltingDuration="0.00" maxHaltingDuration="0.00" haltingDurationSum="0.00" meanIntervalHaltingDuration="0.00" maxIntervalHaltingDuration="0.00" intervalHaltingDurationSum="0.00" startedHalts="0.00" meanVehicleNumber="42.63" maxVehicleNumber="48" />
   <interval begin="120.00" end="180.00" id="mainline_up_2_2" sampledSeconds="2864.81" nVehEntered="40" nVehLeft="32" nVehSeen="84" meanSpeed="21.04" meanTimeLoss="3.11" meanOccupancy="11.92" maxOccupancy="13.25" meanMaxJamLengthInVehicles="0.00" meanMaxJamLengthInMeters="0.00" maxJamLengthInVehicles="0" maxJamLengthInMeters="0.00" jamLengthInVehiclesSum="0" jamLengthInMetersSum="0.00" meanHaltingDuration="0.00" maxHaltingDuration="0.00" haltingDurationSum="0.00" meanIntervalHaltingDuration="0.00" maxIntervalHaltingDuration="0.00" intervalHaltingDurationSum="0.00" startedHalts="0.00" meanVehicleNumber="48.17" maxVehicleNumber="54" />
   <interval begin="180.00" end="240.00" id="mainline_up_0_2" sampledSeconds="2108.66" nVehEntered="35" nVehLeft="32" nVehSeen="67" meanSpeed="18.33" meanTimeLoss="3.26" meanOccupancy="8.78" maxOccupancy="9.75" meanMaxJamLengthInVehicles="0.00" meanMaxJamLengthInMeters="0.00" maxJamLengthInVehicles="0" maxJamLengthInMeters="0.00" jamLengthInVehiclesSum="0" jamLengthInMetersSum="0.00" meanHaltingDuration="0.00" maxHaltingDuration="0.00" haltingDurationSum="0.00" meanIntervalHaltingDuration="0.00" maxIntervalHaltingDuration="0.00" intervalHaltingDurationSum="0.00" startedHalts="0.00" meanVehicleNumber="35.48" maxVehicleNumber="39" />
   <interval begin="180.00" end="240.00" id="mainline_up_1_2" sampledSeconds="2889.21" nVehEntered="58" nVehLeft="52" nVehSeen="102" meanSpeed="19.65" meanTimeLoss="3.23" meanOccupancy="12.01" maxOccupancy="12.75" meanMaxJamLengthInVehicles="0.00" meanMaxJamLengthInMeters="0.00" maxJamLengthInVehicles="0" maxJamLengthInMeters="0.00" jamLengthInVehiclesSum="0" jamLengthInMetersSum="0.00" meanHaltingDuration="0.00" maxHaltingDuration="0.00" haltingDurationSum="0.00" meanIntervalHaltingDuration="0.00" maxIntervalHaltingDuration="0.00" intervalHaltingDurationSum="0.00" startedHalts="0.00" meanVehicleNumber="48.60" maxVehicleNumber="51" />
   <interval begin="180.00" end="240.00" id="mainline_up_2_2" sampledSeconds="3107.75" nVehEntered="44" nVehLeft="42" nVehSeen="96" meanSpeed="20.89" meanTimeLoss="2.88" meanOccupancy="12.92" maxOccupancy="13.69" meanMaxJamLengthInVehicles="0.00" meanMaxJamLengthInMeters="0.00" maxJamLengthInVehicles="0" maxJamLengthInMeters="0.00" jamLengthInVehiclesSum="0" jamLengthInMetersSum="0.00" meanHaltingDuration="0.00" maxHaltingDuration="0.00" haltingDurationSum="0.00" meanIntervalHaltingDuration="0.00" maxIntervalHaltingDuration="0.00" intervalHaltingDurationSum="0.00" startedHalts="0.00" meanVehicleNumber="52.32" maxVehicleNumber="55" />
   <interval begin="240.00" end="300.00" id="mainline_up_0_2" sampledSeconds="1997.02" nVehEntered="30" nVehLeft="34" nVehSeen="65" meanSpeed="18.11" meanTimeLoss="3.49" meanOccupancy="8.28" maxOccupancy="9.00" meanMaxJamLengthInVehicles="0.00" meanMaxJamLengthInMeters="0.00" maxJamLengthInVehicles="0" maxJamLengthInMeters="0.00" jamLengthInVehiclesSum="0" jamLengthInMetersSum="0.00" meanHaltingDuration="0.00" maxHaltingDuration="0.00" haltingDurationSum="0.00" meanIntervalHaltingDuration="0.00" maxIntervalHaltingDuration="0.00" intervalHaltingDurationSum="0.00" startedHalts="0.00" meanVehicleNumber="33.68" maxVehicleNumber="36" />
   <interval begin="240.00" end="300.00" id="mainline_up_1_2" sampledSeconds="3053.63" nVehEntered="44" nVehLeft="45" nVehSeen="94" meanSpeed="19.61" meanTimeLoss="3.84" meanOccupancy="12.69" maxOccupancy="13.50" meanMaxJamLengthInVehicles="0.00" meanMaxJamLengthInMeters="0.00" maxJamLengthInVehicles="0" maxJamLengthInMeters="0.00" jamLengthInVehiclesSum="0" jamLengthInMetersSum="0.00" meanHaltingDuration="0.00" maxHaltingDuration="0.00" haltingDurationSum="0.00" meanIntervalHaltingDuration="0.00" maxIntervalHaltingDuration="0.00" intervalHaltingDurationSum="0.00" startedHalts="0.00" meanVehicleNumber="51.33" maxVehicleNumber="55" />
   <interval begin="240.00" end="300.00" id="mainline_up_2_2" sampledSeconds="3156.26" nVehEntered="36" nVehLeft="43" nVehSeen="90" meanSpeed="21.23" meanTimeLoss="3.22" meanOccupancy="13.10" maxOccupancy="14.02" meanMaxJamLengthInVehicles="0.00" meanMaxJamLengthInMeters="0.00" maxJamLengthInVehicles="0" maxJamLengthInMeters="0.00" jamLengthInVehiclesSum="0" jamLengthInMetersSum="0.00" meanHaltingDuration="0.00" maxHaltingDuration="0.00" haltingDurationSum="0.00" meanIntervalHaltingDuration="0.00" maxIntervalHaltingDuration="0.00" intervalHaltingDurationSum="0.00" startedHalts="0.00" meanVehicleNumber="53.17" maxVehicleNumber="57" />
   <interval begin="300.00" end="360.00" id="mainline_up_0_2" sampledSeconds="1960.02" nVehEntered="33" nVehLeft="33" nVehSeen="64" meanSpeed="18.31" meanTimeLoss="3.24" meanOccupancy="8.17" maxOccupancy="9.08" meanMaxJamLengthInVehicles="0.00" meanMaxJamLengthInMeters="0.00" maxJamLengthInVehicles="0" maxJamLengthInMeters="0.00" jamLengthInVehiclesSum="0" jamLengthInMetersSum="0.00" meanHaltingDuration="0.00" maxHaltingDuration="0.00" haltingDurationSum="0.00" meanIntervalHaltingDuration="0.00" maxIntervalHaltingDuration="0.00" intervalHaltingDurationSum="0.00" startedHalts="0.00" meanVehicleNumber="32.92" maxVehicleNumber="37" />
   <interval begin="300.00" end="360.00" id="mainline_up_1_2" sampledSeconds="2795.44" nVehEntered="51" nVehLeft="61" nVehSeen="100" meanSpeed="19.43" meanTimeLoss="3.45" meanOccupancy="11.61" maxOccupancy="12.75" meanMaxJamLengthInVehicles="0.00" meanMaxJamLengthInMeters="0.00" maxJamLengthInVehicles="0" maxJamLengthInMeters="0.00" jamLengthInVehiclesSum="0" jamLengthInMetersSum="0.00" meanHaltingDuration="0.00" maxHaltingDuration="0.00" haltingDurationSum="0.00" meanIntervalHaltingDuration="0.00" maxIntervalHaltingDuration="0.00" intervalHaltingDurationSum="0.00" startedHalts="0.00" meanVehicleNumber="47.02" maxVehicleNumber="52" />
   <interval begin="300.00" end="360.00" id="mainline_up_2_2" sampledSeconds="3081.48" nVehEntered="48" nVehLeft="40" nVehSeen="95" meanSpeed="20.64" meanTimeLoss="3.48" meanOccupancy="12.78" maxOccupancy="13.75" meanMaxJamLengthInVehicles="0.00" meanMaxJamLengthInMeters="0.00" maxJamLengthInVehicles="0" maxJamLengthInMeters="0.00" jamLengthInVehiclesSum="0" jamLengthInMetersSum="0.00" meanHaltingDuration="0.00" maxHaltingDuration="0.00" haltingDurationSum="0.00" meanIntervalHaltingDuration="0.00" maxIntervalHaltingDuration="0.00" intervalHaltingDurationSum="0.00" startedHalts="0.00" meanVehicleNumber="51.85" maxVehicleNumber="56" />
   <interval begin="360.00" end="420.00" id="mainline_up_0_2" sampledSeconds="1980.05" nVehEntered="31" nVehLeft="30" nVehSeen="62" meanSpeed="18.70" meanTimeLoss="3.15" meanOccupancy="8.24" maxOccupancy="9.25" meanMaxJamLengthInVehicles="0.00" meanMaxJamLengthInMeters="0.00" maxJamLengthInVehicles="0" maxJamLengthInMeters="0.00" jamLengthInVehiclesSum="0" jamLengthInMetersSum="0.00" meanHaltingDuration="0.00" maxHaltingDuration="0.00" haltingDurationSum="0.00" meanIntervalHaltingDuration="0.00" maxIntervalHaltingDuration="0.00" intervalHaltingDurationSum="0.00" startedHalts="0.00" meanVehicleNumber="33.32" maxVehicleNumber="38" />
   <interval begin="360.00" end="420.00" id="mainline_up_1_2" sampledSeconds="2689.46" nVehEntered="52" nVehLeft="43" nVehSeen="91" meanSpeed="19.63" meanTimeLoss="3.34" meanOccupancy="11.19" maxOccupancy="12.25" meanMaxJamLengthInVehicles="0.00" meanMaxJamLengthInMeters="0.00" maxJamLengthInVehicles="0" maxJamLengthInMeters="0.00" jamLengthInVehiclesSum="0" jamLengthInMetersSum="0.00" meanHaltingDuration="0.00" maxHaltingDuration="0.00" haltingDurationSum="0.00" meanIntervalHaltingDuration="0.00" maxIntervalHaltingDuration="0.00" intervalHaltingDurationSum="0.00" startedHalts="0.00" meanVehicleNumber="45.22" maxVehicleNumber="50" />
   <interval begin="360.00" end="420.00" id="mainline_up_2_2" sampledSeconds="3282.87" nVehEntered="39" nVehLeft="43" nVehSeen="94" meanSpeed="20.37" meanTimeLoss="4.08" meanOccupancy="13.64" maxOccupancy="14.75" meanMaxJamLengthInVehicles="0.00" meanMaxJamLengthInMeters="0.00" maxJamLengthInVehicles="0" maxJamLengthInMeters="0.00" jamLengthInVehiclesSum="0" jamLengthInMetersSum="0.00" meanHaltingDuration="0.00" maxHaltingDuration="0.00" haltingDurationSum="0.00" meanIntervalHaltingDuration="0.00" maxIntervalHaltingDuration="0.00" intervalHaltingDurationSum="0.00" startedHalts="0.00" meanVehicleNumber="55.28" maxVehicleNumber="60" />
   <interval begin="420.00" end="480.00" id="mainline_up_0_2" sampledSeconds="2158.37" nVehEntered="33" nVehLeft="32" nVehSeen="65" meanSpeed="18.29" meanTimeLoss="3.68" meanOccupancy="8.98" maxOccupancy="10.00" meanMaxJamLengthInVehicles="0.00" meanMaxJamLengthInMeters="0.00" maxJamLengthInVehicles="0" maxJamLengthInMeters="0.00" jamLengthInVehiclesSum="0" jamLengthInMetersSum="0.00" meanHaltingDuration="0.00" maxHaltingDuration="0.00" haltingDurationSum="0.00" meanIntervalHaltingDuration="0.00" maxIntervalHaltingDuration="0.00" intervalHaltingDurationSum="0.00" startedHalts="0.00" meanVehicleNumber="36.32" maxVehicleNumber="40" />
   <interval begin="420.00" end="480.00" id="mainline_up_1_2" sampledSeconds="2536.57" nVehEntered="50" nVehLeft="53" nVehSeen="98" meanSpeed="19.41" meanTimeLoss="3.14" meanOccupancy="10.53" maxOccupancy="12.00" meanMaxJamLengthInVehicles="0.00" meanMaxJamLengthInMeters="0.00" maxJamLengthInVehicles="0" maxJamLengthInMeters="0.00" jamLengthInVehiclesSum="0" jamLengthInMetersSum="0.00" meanHaltingDuration="0.00" maxHaltingDuration="0.00" haltingDurationSum="0.00" meanIntervalHaltingDuration="0.00" maxIntervalHaltingDuration="0.00" intervalHaltingDurationSum="0.00" startedHalts="0.00" meanVehicleNumber="42.72" maxVehicleNumber="49" />
   <interval begin="420.00" end="480.00" id="mainline_up_2_2" sampledSeconds="3213.48" nVehEntered="48" nVehLeft="43" nVehSeen="99" meanSpeed="20.74" meanTimeLoss="3.22" meanOccupancy="13.35" maxOccupancy="14.00" meanMaxJamLengthInVehicles="0.00" meanMaxJamLengthInMeters="0.00" maxJamLengthInVehicles="0" maxJamLengthInMeters="0.00" jamLengthInVehiclesSum="0" jamLengthInMetersSum="0.00" meanHaltingDuration="0.00" maxHaltingDuration="0.00" haltingDurationSum="0.00" meanIntervalHaltingDuration="0.00" maxIntervalHaltingDuration="0.00" intervalHaltingDurationSum="0.00" startedHalts="0.00" meanVehicleNumber="54.08" maxVehicleNumber="57" />
   <interval begin="480.00" end="540.00" id="mainline_up_0_2" sampledSeconds="1896.39" nVehEntered="31" nVehLeft="31" nVehSeen="64" meanSpeed="17.76" meanTimeLoss="3.22" meanOccupancy="7.89" maxOccupancy="8.75" meanMaxJamLengthInVehicles="0.00" meanMaxJamLengthInMeters="0.00" maxJamLengthInVehicles="0" maxJamLengthInMeters="0.00" jamLengthInVehiclesSum="0" jamLengthInMetersSum="0.00" meanHaltingDuration="0.00" maxHaltingDuration="0.00" haltingDurationSum="0.00" meanIntervalHaltingDuration="0.00" maxIntervalHaltingDuration="0.00" intervalHaltingDurationSum="0.00" startedHalts="0.00" meanVehicleNumber="31.87" maxVehicleNumber="35" />
   <interval begin="480.00" end="540.00" id="mainline_up_1_2" sampledSeconds="2865.10" nVehEntered="57" nVehLeft="55" nVehSeen="102" meanSpeed="19.07" meanTimeLoss="3.31" meanOccupancy="11.89" maxOccupancy="12.50" meanMaxJamLengthInVehicles="0.00" meanMaxJamLengthInMeters="0.00" maxJamLengthInVehicles="0" maxJamLengthInMeters="0.00" jamLengthInVehiclesSum="0" jamLengthInMetersSum="0.00" meanHaltingDuration="0.00" maxHaltingDuration="0.00" haltingDurationSum="0.00" meanIntervalHaltingDuration="0.00" maxIntervalHaltingDuration="0.00" intervalHaltingDurationSum="0.00" startedHalts="0.00" meanVehicleNumber="48.18" maxVehicleNumber="51" />
   <interval begin="480.00" end="540.00" id="mainline_up_2_2" sampledSeconds="3263.56" nVehEntered="42" nVehLeft="46" nVehSeen="98" meanSpeed="21.03" meanTimeLoss="3.21" meanOccupancy="13.55" maxOccupancy="14.75" meanMaxJamLengthInVehicles="0.00" meanMaxJamLengthInMeters="0.00" maxJamLengthInVehicles="0" maxJamLengthInMeters="0.00" jamLengthInVehiclesSum="0" jamLengthInMetersSum="0.00" meanHaltingDuration="0.00" maxHaltingDuration="0.00" haltingDurationSum="0.00" meanIntervalHaltingDuration="0.00" maxIntervalHaltingDuration="0.00" intervalHaltingDurationSum="0.00" startedHalts="0.00" meanVehicleNumber="54.83" maxVehicleNumber="60" />
   <interval begin="540.00" end="600.00" id="mainline_up_0_2" sampledSeconds="2140.49" nVehEntered="36" nVehLeft="36" nVehSeen="69" meanSpeed="17.58" meanTimeLoss="3.34" meanOccupancy="8.90" maxOccupancy="9.50" meanMaxJamLengthInVehicles="0.00" meanMaxJamLengthInMeters="0.00" maxJamLengthInVehicles="0" maxJamLengthInMeters="0.00" jamLengthInVehiclesSum="0" jamLengthInMetersSum="0.00" meanHaltingDuration="1.00" maxHaltingDuration="1.00" haltingDurationSum="3.00" meanIntervalHaltingDuration="1.00" maxIntervalHaltingDuration="1.00" intervalHaltingDurationSum="3.00" startedHalts="3.00" meanVehicleNumber="36.02" maxVehicleNumber="38" />
   <interval begin="540.00" end="600.00" id="mainline_up_1_2" sampledSeconds="2644.19" nVehEntered="54" nVehLeft="57" nVehSeen="101" meanSpeed="19.13" meanTimeLoss="2.78" meanOccupancy="10.99" maxOccupancy="12.00" meanMaxJamLengthInVehicles="0.00" meanMaxJamLengthInMeters="0.00" maxJamLengthInVehicles="0" maxJamLengthInMeters="0.00" jamLengthInVehiclesSum="0" jamLengthInMetersSum="0.00" meanHaltingDuration="0.00" maxHaltingDuration="0.00" haltingDurationSum="0.00" meanIntervalHaltingDuration="0.00" maxIntervalHaltingDuration="0.00" intervalHaltingDurationSum="0.00" startedHalts="0.00" meanVehicleNumber="44.50" maxVehicleNumber="49" />
   <interval begin="540.00" end="600.00" id="mainline_up_2_2" sampledSeconds="3329.48" nVehEntered="48" nVehLeft="40" nVehSeen="100" meanSpeed="20.65" meanTimeLoss="3.66" meanOccupancy="13.84" maxOccupancy="15.25" meanMaxJamLengthInVehicles="0.00" meanMaxJamLengthInMeters="0.00" maxJamLengthInVehicles="0" maxJamLengthInMeters="0.00" jamLengthInVehiclesSum="0" jamLengthInMetersSum="0.00" meanHaltingDuration="0.00" maxHaltingDuration="0.00" haltingDurationSum="0.00" meanIntervalHaltingDuration="0.00" maxIntervalHaltingDuration="0.00" intervalHaltingDurationSum="0.00" startedHalts="0.00" meanVehicleNumber="56.03" maxVehicleNumber="62" />
   <interval begin="600.00" end="660.00" id="mainline_up_0_2" sampledSeconds="1870.96" nVehEntered="35" nVehLeft="34" nVehSeen="68" meanSpeed="18.09" meanTimeLoss="2.00" meanOccupancy="7.78" maxOccupancy="8.75" meanMaxJamLengthInVehicles="0.02" meanMaxJamLengthInMeters="0.00" maxJamLengthInVehicles="1" maxJamLengthInMeters="0.00" jamLengthInVehiclesSum="1" jamLengthInMetersSum="0.00" meanHaltingDuration="0.00" maxHaltingDuration="0.00" haltingDurationSum="0.00" meanIntervalHaltingDuration="0.00" maxIntervalHaltingDuration="0.00" intervalHaltingDurationSum="0.00" startedHalts="1.00" meanVehicleNumber="31.52" maxVehicleNumber="36" />
   <interval begin="600.00" end="660.00" id="mainline_up_1_2" sampledSeconds="2781.51" nVehEntered="55" nVehLeft="50" nVehSeen="99" meanSpeed="18.88" meanTimeLoss="3.48" meanOccupancy="11.56" maxOccupancy="12.75" meanMaxJamLengthInVehicles="0.00" meanMaxJamLengthInMeters="0.00" maxJamLengthInVehicles="0" maxJamLengthInMeters="0.00" jamLengthInVehiclesSum="0" jamLengthInMetersSum="0.00" meanHaltingDuration="0.00" maxHaltingDuration="0.00" haltingDurationSum="0.00" meanIntervalHaltingDuration="0.00" maxIntervalHaltingDuration="0.00" intervalHaltingDurationSum="0.00" startedHalts="0.00" meanVehicleNumber="46.82" maxVehicleNumber="51" />
   <interval begin="600.00" end="660.00" id="mainline_up_2_2" sampledSeconds="3303.85" nVehEntered="39" nVehLeft="45" nVehSeen="99" meanSpeed="20.57" meanTimeLoss="3.58" meanOccupancy="13.71" maxOccupancy="15.25" meanMaxJamLengthInVehicles="0.00" meanMaxJamLengthInMeters="0.00" maxJamLengthInVehicles="0" maxJamLengthInMeters="0.00" jamLengthInVehiclesSum="0" jamLengthInMetersSum="0.00" meanHaltingDuration="0.00" maxHaltingDuration="0.00" haltingDurationSum="0.00" meanIntervalHaltingDuration="0.00" maxIntervalHaltingDuration="0.00" intervalHaltingDurationSum="0.00" startedHalts="0.00" meanVehicleNumber="55.60" maxVehicleNumber="61" />
   <interval begin="660.00" end="720.00" id="mainline_up_0_2" sampledSeconds="1979.71" nVehEntered="30" nVehLeft="33" nVehSeen="64" meanSpeed="18.08" meanTimeLoss="2.75" meanOccupancy="8.25" maxOccupancy="9.00" meanMaxJamLengthInVehicles="0.00" meanMaxJamLengthInMeters="0.00" maxJamLengthInVehicles="0" maxJamLengthInMeters="0.00" jamLengthInVehiclesSum="0" jamLengthInMetersSum="0.00" meanHaltingDuration="0.00" maxHaltingDuration="0.00" haltingDurationSum="0.00" meanIntervalHaltingDuration="0.00" maxIntervalHaltingDuration="0.00" intervalHaltingDurationSum="0.00" startedHalts="0.00" meanVehicleNumber="33.32" maxVehicleNumber="36" />
   <interval begin="660.00" end="720.00" id="mainline_up_1_2" sampledSeconds="2966.09" nVehEntered="53" nVehLeft="53" nVehSeen="102" meanSpeed="19.27" meanTimeLoss="3.41" meanOccupancy="12.33" maxOccupancy="13.00" meanMaxJamLengthInVehicles="0.00" meanMaxJamLengthInMeters="0.00" maxJamLengthInVehicles="0" maxJamLengthInMeters="0.00" jamLengthInVehiclesSum="0" jamLengthInMetersSum="0.00" meanHaltingDuration="0.00" maxHaltingDuration="0.00" haltingDurationSum="0.00" meanIntervalHaltingDuration="0.00" maxIntervalHaltingDuration="0.00" intervalHaltingDurationSum="0.00" startedHalts="0.00" meanVehicleNumber="49.95" maxVehicleNumber="53" />
   <interval begin="660.00" end="720.00" id="mainline_up_2_2" sampledSeconds="3254.59" nVehEntered="45" nVehLeft="44" nVehSeen="99" meanSpeed="20.78" meanTimeLoss="3.45" meanOccupancy="13.51" maxOccupancy="14.00" meanMaxJamLengthInVehicles="0.00" meanMaxJamLengthInMeters="0.00" maxJamLengthInVehicles="0" maxJamLengthInMeters="0.00" jamLengthInVehiclesSum="0" jamLengthInMetersSum="0.00" meanHaltingDuration="0.00" maxHaltingDuration="0.00" haltingDurationSum="0.00" meanIntervalHaltingDuration="0.00" maxIntervalHaltingDuration="0.00" intervalHaltingDurationSum="0.00" startedHalts="0.00" meanVehicleNumber="54.80" maxVehicleNumber="57" />
   <interval begin="720.00" end="780.00" id="mainline_up_0_2" sampledSeconds="1995.61" nVehEntered="33" nVehLeft="30" nVehSeen="64" meanSpeed="18.66" meanTimeLoss="2.94" meanOccupancy="8.31" maxOccupancy="9.00" meanMaxJamLengthInVehicles="0.00" meanMaxJamLengthInMeters="0.00" maxJamLengthInVehicles="0" maxJamLengthInMeters="0.00" jamLengthInVehiclesSum="0" jamLengthInMetersSum="0.00" meanHaltingDuration="0.00" maxHaltingDuration="0.00" haltingDurationSum="0.00" meanIntervalHaltingDuration="0.00" maxIntervalHaltingDuration="0.00" intervalHaltingDurationSum="0.00" startedHalts="0.00" meanVehicleNumber="33.60" maxVehicleNumber="36" />
   <interval begin="720.00" end="780.00" id="mainline_up_1_2" sampledSeconds="2904.62" nVehEntered="52" nVehLeft="56" nVehSeen="101" meanSpeed="19.89" meanTimeLoss="2.93" meanOccupancy="12.07" maxOccupancy="12.75" meanMaxJamLengthInVehicles="0.00" meanMaxJamLengthInMeters="0.00" maxJamLengthInVehicles="0" maxJamLengthInMeters="0.00" jamLengthInVehiclesSum="0" jamLengthInMetersSum="0.00" meanHaltingDuration="0.00" maxHaltingDuration="0.00" haltingDurationSum="0.00" meanIntervalHaltingDuration="0.00" maxIntervalHaltingDuration="0.00" intervalHaltingDurationSum="0.00" startedHalts="0.00" meanVehicleNumber="48.87" maxVehicleNumber="52" />
   <interval begin="720.00" end="780.00" id="mainline_up_2_2" sampledSeconds="3097.35" nVehEntered="39" nVehLeft="44" nVehSeen="94" meanSpeed="20.87" meanTimeLoss="3.57" meanOccupancy="12.85" maxOccupancy="13.89" meanMaxJamLengthInVehicles="0.00" meanMaxJamLengthInMeters="0.00" maxJamLengthInVehicles="0" maxJamLengthInMeters="0.00" jamLengthInVehiclesSum="0" jamLengthInMetersSum="0.00" meanHaltingDuration="0.00" maxHaltingDuration="0.00" haltingDurationSum="0.00" meanIntervalHaltingDuration="0.00" maxIntervalHaltingDuration="0.00" intervalHaltingDurationSum="0.00" startedHalts="0.00" meanVehicleNumber="52.15" maxVehicleNumber="57" />
   <interval begin="780.00" end="840.00" id="mainline_up_0_2" sampledSeconds="2095.26" nVehEntered="34" nVehLeft="38" nVehSeen="68" meanSpeed="18.63" meanTimeLoss="3.15" meanOccupancy="8.71" maxOccupancy="10.25" meanMaxJamLengthInVehicles="0.00" meanMaxJamLengthInMeters="0.00" maxJamLengthInVehicles="0" maxJamLengthInMeters="0.00" jamLengthInVehiclesSum="0" jamLengthInMetersSum="0.00" meanHaltingDuration="0.00" maxHaltingDuration="0.00" haltingDurationSum="0.00" meanIntervalHaltingDuration="0.00" maxIntervalHaltingDuration="0.00" intervalHaltingDurationSum="0.00" startedHalts="0.00" meanVehicleNumber="35.25" maxVehicleNumber="41" />
   <interval begin="780.00" end="840.00" id="mainline_up_1_2" sampledSeconds="2582.00" nVehEntered="55" nVehLeft="63" nVehSeen="100" meanSpeed="19.73" meanTimeLoss="2.62" meanOccupancy="10.72" maxOccupancy="11.75" meanMaxJamLengthInVehicles="0.00" meanMaxJamLengthInMeters="0.00" maxJamLengthInVehicles="0" maxJamLengthInMeters="0.00" jamLengthInVehiclesSum="0" jamLengthInMetersSum="0.00" meanHaltingDuration="0.00" maxHaltingDuration="0.00" haltingDurationSum="0.00" meanIntervalHaltingDuration="0.00" maxIntervalHaltingDuration="0.00" intervalHaltingDurationSum="0.00" startedHalts="0.00" meanVehicleNumber="43.52" maxVehicleNumber="48" />
   <interval begin="780.00" end="840.00" id="mainline_up_2_2" sampledSeconds="3203.85" nVehEntered="54" nVehLeft="48" nVehSeen="104" meanSpeed="21.12" meanTimeLoss="2.88" meanOccupancy="13.31" maxOccupancy="14.25" meanMaxJamLengthInVehicles="0.00" meanMaxJamLengthInMeters="0.00" maxJamLengthInVehicles="0" maxJamLengthInMeters="0.00" jamLengthInVehiclesSum="0" jamLengthInMetersSum="0.00" meanHaltingDuration="0.00" maxHaltingDuration="0.00" haltingDurationSum="0.00" meanIntervalHaltingDuration="0.00" maxIntervalHaltingDuration="0.00" intervalHaltingDurationSum="0.00" startedHalts="0.00" meanVehicleNumber="53.90" maxVehicleNumber="57" />
   <interval begin="840.00" end="900.00" id="mainline_up_0_2" sampledSeconds="1815.79" nVehEntered="32" nVehLeft="31" nVehSeen="62" meanSpeed="18.40" meanTimeLoss="2.75" meanOccupancy="7.56" maxOccupancy="8.43" meanMaxJamLengthInVehicles="0.00" meanMaxJamLengthInMeters="0.00" maxJamLengthInVehicles="0" maxJamLengthInMeters="0.00" jamLengthInVehiclesSum="0" jamLengthInMetersSum="0.00" meanHaltingDuration="0.00" maxHaltingDuration="0.00" haltingDurationSum="0.00" meanIntervalHaltingDuration="0.00" maxIntervalHaltingDuration="0.00" intervalHaltingDurationSum="0.00" startedHalts="0.00" meanVehicleNumber="30.57" maxVehicleNumber="34" />
   <interval begin="840.00" end="900.00" id="mainline_up_1_2" sampledSeconds="2704.27" nVehEntered="50" nVehLeft="40" nVehSeen="87" meanSpeed="19.58" meanTimeLoss="3.24" meanOccupancy="11.24" maxOccupancy="12.50" meanMaxJamLengthInVehicles="0.00" meanMaxJamLengthInMeters="0.00" maxJamLengthInVehicles="0" maxJamLengthInMeters="0.00" jamLengthInVehiclesSum="0" jamLengthInMetersSum="0.00" meanHaltingDuration="0.00" maxHaltingDuration="0.00" haltingDurationSum="0.00" meanIntervalHaltingDuration="0.00" maxIntervalHaltingDuration="0.00" intervalHaltingDurationSum="0.00" startedHalts="0.00" meanVehicleNumber="45.50" maxVehicleNumber="51" />
   <interval begin="840.00" end="900.00" id="mainline_up_2_2" sampledSeconds="3184.29" nVehEntered="36" nVehLeft="37" nVehSeen="92" meanSpeed="20.90" meanTimeLoss="3.68" meanOccupancy="13.23" maxOccupancy="13.75" meanMaxJamLengthInVehicles="0.00" meanMaxJamLengthInMeters="0.00" maxJamLengthInVehicles="0" maxJamLengthInMeters="0.00" jamLengthInVehiclesSum="0" jamLengthInMetersSum="0.00" meanHaltingDuration="0.00" maxHaltingDuration="0.00" haltingDurationSum="0.00" meanIntervalHaltingDuration="0.00" maxIntervalHaltingDuration="0.00" intervalHaltingDurationSum="0.00" startedHalts="0.00" meanVehicleNumber="53.57" maxVehicleNumber="56" />