<?xml version="1.0" encoding="UTF-8"?>

<!-- generated on 03/04/19 21:41:15 by Eclipse SUMO Version 1.0.1
<configuration xmlns:xsi="http://www.w3.org/2001/XMLSchema-instance" xsi:noNamespaceSchemaLocation="http://sumo.dlr.de/xsd/sumoConfiguration.xsd">

    <input>
        <net-file value="./Project/ramp.net.xml"/>
        <route-files value="./Project/ramp.rou.xml"/>
        <additional-files value="./Project/ramp.add.xml"/>
    </input>

    <time>
        <begin value="0"/>
    </time>

    <report>
        <verbose value="true"/>
        <no-step-log value="true"/>
    </report>

    <traci_server>
        <remote-port value="27861"/>
    </traci_server>

    <random_number>
        <seed value="739040420"/>
    </random_number>

    <gui_only>
        <quit-on-end value="true"/>
        <start value="true"/>
    </gui_only>

</configuration>
-->

<detector xmlns:xsi="http://www.w3.org/2001/XMLSchema-instance" xsi:noNamespaceSchemaLocation="http://sumo.dlr.de/xsd/det_e2_file.xsd">
   <interval begin="0.00" end="60.00" id="mainline_up_0_2" sampledSeconds="228.53" nVehEntered="15" nVehLeft="0" nVehSeen="15" meanSpeed="19.66" meanTimeLoss="0.66" meanOccupancy="0.97" maxOccupancy="3.55" meanMaxJamLengthInVehicles="0.00" meanMaxJamLengthInMeters="0.00" maxJamLengthInVehicles="0" maxJamLengthInMeters="0.00" jamLengthInVehiclesSum="0" jamLengthInMetersSum="0.00" meanHaltingDuration="0.00" maxHaltingDuration="0.00" haltingDurationSum="0.00" meanIntervalHaltingDuration="0.00" maxIntervalHaltingDuration="0.00" intervalHaltingDurationSum="0.00" startedHalts="0.00" meanVehicleNumber="3.90" maxVehicleNumber="15" />
   <interval begin="0.00" end="60.00" id="mainline_up_1_2" sampledSeconds="239.31" nVehEntered="20" nVehLeft="9" nVehSeen="20" meanSpeed="19.95" meanTimeLoss="0.88" meanOccupancy="1.02" maxOccupancy="3.00" meanMaxJamLengthInVehicles="0.00" meanMaxJamLengthInMeters="0.00" maxJamLengthInVehicles="0" maxJamLengthInMeters="0.00" jamLengthInVehiclesSum="0" jamLengthInMetersSum="0.00" meanHaltingDuration="0.00" maxHaltingDuration="0.00" haltingDurationSum="0.00" meanIntervalHaltingDuration="0.00" maxIntervalHaltingDuration="0.00" intervalHaltingDurationSum="0.00" startedHalts="0.00" meanVehicleNumber="4.13" maxVehicleNumber="12" />
   <interval begin="0.00" end="60.00" id="mainline_up_2_2" sampledSeconds="236.65" nVehEntered="20" nVehLeft="5" nVehSeen="20" meanSpeed="22.42" meanTimeLoss="0.64" meanOccupancy="1.01" maxOccupancy="3.75" meanMaxJamLengthInVehicles="0.00" meanMaxJamLengthInMeters="0.00" maxJamLengthInVehicles="0" maxJamLengthInMeters="0.00" jamLengthInVehiclesSum="0" jamLengthInMetersSum="0.00" meanHaltingDuration="0.00" maxHaltingDuration="0.00" haltingDurationSum="0.00" meanIntervalHaltingDuration="0.00" maxIntervalHaltingDuration="0.00" intervalHaltingDurationSum="0.00" startedHalts="0.00" meanVehicleNumber="4.07" maxVehicleNumber="15" />
   <interval begin="60.00" end="120.00" id="mainline_up_0_2" sampledSeconds="1303.23" nVehEntered="23" nVehLeft="12" nVehSeen="38" meanSpeed="18.95" meanTimeLoss="2.21" meanOccupancy="5.46" maxOccupancy="6.75" meanMaxJamLengthInVehicles="0.00" meanMaxJamLengthInMeters="0.00" maxJamLengthInVehicles="0" maxJamLengthInMeters="0.00" jamLengthInVehiclesSum="0" jamLengthInMetersSum="0.00" meanHaltingDuration="0.00" maxHaltingDuration="0.00" haltingDurationSum="0.00" meanIntervalHaltingDuration="0.00" maxIntervalHaltingDuration="0.00" intervalHaltingDurationSum="0.00" startedHalts="0.00" meanVehicleNumber="21.92" maxVehicleNumber="27" />
   <interval begin="60.00" end="120.00" id="mainline_up_1_2" sampledSeconds="1486.11" nVehEntered="49" nVehLeft="22" nVehSeen="60" meanSpeed="19.71" meanTimeLoss="2.43" meanOccupancy="6.22" maxOccupancy="9.53" meanMaxJamLengthInVehicles="0.00" meanMaxJamLengthInMeters="0.00" maxJamLengthInVehicles="0" maxJamLengthInMeters="0.00" jamLengthInVehiclesSum="0" jamLengthInMetersSum="0.00" meanHaltingDuration="0.00" maxHaltingDuration="0.00" haltingDurationSum="0.00" meanIntervalHaltingDuration="0.00" maxIntervalHaltingDuration="0.00" intervalHaltingDurationSum="0.00" startedHalts="0.00" meanVehicleNumber="25.05" maxVehicleNumber="39" />
   <interval begin="60.00" end="120.00" id="mainline_up_2_2" sampledSeconds="1822.34" nVehEntered="43" nVehLeft="12" nVehSeen="58" meanSpeed="21.12" meanTimeLoss="2.93" meanOccupancy="7.64" maxOccupancy="12.00" meanMaxJamLengthInVehicles="0.00" meanMaxJamLengthInMeters="0.00" maxJamLengthInVehicles="0" maxJamLengthInMeters="0.00" jamLengthInVehiclesSum="0" jamLengthInMetersSum="0.00" meanHaltingDuration="0.00" maxHaltingDuration="0.00" haltingDurationSum="0.00" meanIntervalHaltingDuration="0.00" maxIntervalHaltingDuration="0.00" intervalHaltingDurationSum="0.00" startedHalts="0.00" meanVehicleNumber="30.60" maxVehicleNumber="48" />
   <interval begin="120.00" end="180.00" id="mainline_up_0_2" sampledSeconds="1656.89" nVehEntered="38" nVehLeft="34" nVehSeen="64" meanSpeed="17.85" meanTimeLoss="2.51" meanOccupancy="6.91" maxOccupancy="8.25" meanMaxJamLengthInVehicles="0.00" meanMaxJamLengthInMeters="0.00" maxJamLengthInVehicles="0" maxJamLengthInMeters="0.00" jamLengthInVehiclesSum="0" jamLengthInMetersSum="0.00" meanHaltingDuration="0.00" maxHaltingDuration="0.00" haltingDurationSum="0.00" meanIntervalHaltingDuration="0.00" maxIntervalHaltingDuration="0.00" intervalHaltingDurationSum="0.00" startedHalts="0.00" meanVehicleNumber="27.92" maxVehicleNumber="33" />
   <interval begin="120.00" end="180.00" id="mainline_up_1_2" sampledSeconds="2722.59" nVehEntered="58" nVehLeft="50" nVehSeen="96" meanSpeed="19.32" meanTimeLoss="3.01" meanOccupancy="11.34" maxOccupancy="13.00" meanMaxJamLengthInVehicles="0.00" meanMaxJamLengthInMeters="0.00" maxJamLengthInVehicles="0" maxJamLengthInMeters="0.00" jamLengthInVehiclesSum="0" jamLengthInMetersSum="0.00" meanHaltingDuration="0.00" maxHaltingDuration="0.00" haltingDurationSum="0.00" meanIntervalHaltingDuration="0.00" maxIntervalHaltingDuration="0.00" intervalHaltingDurationSum="0.00" startedHalts="0.00" meanVehicleNumber="45.78" maxVehicleNumber="52" />
   <interval begin="120.00" end="180.00" id="mainline_up_2_2" sampledSeconds="3081.59" nVehEntered="42" nVehLeft="33" nVehSeen="88" meanSpeed="21.04" meanTimeLoss="3.16" meanOccupancy="12.83" maxOccupancy="14.25" meanMaxJamLengthInVehicles="0.00" meanMaxJamLengthInMeters="0.00" maxJamLengthInVehicles="0" maxJamLengthInMeters="0.00" jamLengthInVehiclesSum="0" jamLengthInMetersSum="0.00" meanHaltingDuration="0.00" maxHaltingDuration="0.00" haltingDurationSum="0.00" meanIntervalHaltingDuration="0.00" maxIntervalHaltingDuration="0.00" intervalHaltingDurationSum="0.00" startedHalts="0.00" meanVehicleNumber="51.77" maxVehicleNumber="57" />
   <interval begin="180.00" end="240.00" id="mainline_up_0_2" sampledSeconds="2538.72" nVehEntered="51" nVehLeft="28" nVehSeen="81" meanSpeed="15.48" meanTimeLoss="3.35" meanOccupancy="10.55" maxOccupancy="13.43" meanMaxJamLengthInVehicles="0.00" meanMaxJamLengthInMeters="0.00" maxJamLengthInVehicles="0" maxJamLengthInMeters="0.00" jamLengthInVehiclesSum="0" jamLengthInMetersSum="0.00" meanHaltingDuration="0.00" maxHaltingDuration="0.00" haltingDurationSum="0.00" meanIntervalHaltingDuration="0.00" maxIntervalHaltingDuration="0.00" intervalHaltingDurationSum="0.00" startedHalts="0.00" meanVehicleNumber="42.68" maxVehicleNumber="54" />
   <interval begin="180.00" end="240.00" id="mainline_up_1_2" sampledSeconds="2955.73" nVehEntered="65" nVehLeft="60" nVehSeen="111" meanSpeed="16.42" meanTimeLoss="2.69" meanOccupancy="12.28" maxOccupancy="13.75" meanMaxJamLengthInVehicles="0.00" meanMaxJamLengthInMeters="0.00" maxJamLengthInVehicles="0" maxJamLengthInMeters="0.00" jamLengthInVehiclesSum="0" jamLengthInMetersSum="0.00" meanHaltingDuration="0.00" maxHaltingDuration="0.00" haltingDurationSum="0.00" meanIntervalHaltingDuration="0.00" maxIntervalHaltingDuration="0.00" intervalHaltingDurationSum="0.00" startedHalts="0.00" meanVehicleNumber="49.68" maxVehicleNumber="56" />
   <interval begin="180.00" end="240.00" id="mainline_up_2_2" sampledSeconds="2886.15" nVehEntered="36" nVehLeft="51" nVehSeen="91" meanSpeed="17.17" meanTimeLoss="2.95" meanOccupancy="12.01" maxOccupancy="14.41" meanMaxJamLengthInVehicles="0.00" meanMaxJamLengthInMeters="0.00" maxJamLengthInVehicles="0" maxJamLengthInMeters="0.00" jamLengthInVehiclesSum="0" jamLengthInMetersSum="0.00" meanHaltingDuration="0.00" maxHaltingDuration="0.00" haltingDurationSum="0.00" meanIntervalHaltingDuration="0.00" maxIntervalHaltingDuration="0.00" intervalHaltingDurationSum="0.00" startedHalts="0.00" meanVehicleNumber="48.52" maxVehicleNumber="58" />
   <interval begin="240.00" end="300.00" id="mainline_up_0_2" sampledSeconds="2849.36" nVehEntered="30" nVehLeft="43" nVehSeen="83" meanSpeed="18.03" meanTimeLoss="3.17" meanOccupancy="11.85" maxOccupancy="13.61" meanMaxJamLengthInVehicles="0.00" meanMaxJamLengthInMeters="0.00" maxJamLengthInVehicles="0" maxJamLengthInMeters="0.00" jamLengthInVehiclesSum="0" jamLengthInMetersSum="0.00" meanHaltingDuration="0.00" maxHaltingDuration="0.00" haltingDurationSum="0.00" meanIntervalHaltingDuration="0.00" maxIntervalHaltingDuration="0.00" intervalHaltingDurationSum="0.00" startedHalts="0.00" meanVehicleNumber="47.90" maxVehicleNumber="55" />
   <interval begin="240.00" end="300.00" id="mainline_up_1_2" sampledSeconds="3152.15" nVehEntered="59" nVehLeft="59" nVehSeen="110" meanSpeed="19.24" meanTimeLoss="1.89" meanOccupancy="13.08" maxOccupancy="14.00" meanMaxJamLengthInVehicles="0.00" meanMaxJamLengthInMeters="0.00" maxJamLengthInVehicles="0" maxJamLengthInMeters="0.00" jamLengthInVehiclesSum="0" jamLengthInMetersSum="0.00" meanHaltingDuration="0.00" maxHaltingDuration="0.00" haltingDurationSum="0.00" meanIntervalHaltingDuration="0.00" maxIntervalHaltingDuration="0.00" intervalHaltingDurationSum="0.00" startedHalts="0.00" meanVehicleNumber="53.00" maxVehicleNumber="56" />
   <interval begin="240.00" end="300.00" id="mainline_up_2_2" sampledSeconds="2715.93" nVehEntered="46" nVehLeft="32" nVehSeen="86" meanSpeed="20.29" meanTimeLoss="1.43" meanOccupancy="11.29" maxOccupancy="13.50" meanMaxJamLengthInVehicles="0.00" meanMaxJamLengthInMeters="0.00" maxJamLengthInVehicles="0" maxJamLengthInMeters="0.00" jamLengthInVehiclesSum="0" jamLengthInMetersSum="0.00" meanHaltingDuration="0.00" maxHaltingDuration="0.00" haltingDurationSum="0.00" meanIntervalHaltingDuration="0.00" maxIntervalHaltingDuration="0.00" intervalHaltingDurationSum="0.00" startedHalts="0.00" meanVehicleNumber="45.67" maxVehicleNumber="55" />
   <interval begin="300.00" end="360.00" id="mainline_up_0_2" sampledSeconds="2648.13" nVehEntered="40" nVehLeft="33" nVehSeen="80" meanSpeed="17.84" meanTimeLoss="2.11" meanOccupancy="11.02" maxOccupancy="12.25" meanMaxJamLengthInVehicles="0.00" meanMaxJamLengthInMeters="0.00" maxJamLengthInVehicles="0" maxJamLengthInMeters="0.00" jamLengthInVehiclesSum="0" jamLengthInMetersSum="0.00" meanHaltingDuration="0.00" maxHaltingDuration="0.00" haltingDurationSum="0.00" meanIntervalHaltingDuration="0.00" maxIntervalHaltingDuration="0.00" intervalHaltingDurationSum="0.00" startedHalts="0.00" meanVehicleNumber="44.55" maxVehicleNumber="50" />
   <interval begin="300.00" end="360.00" id="mainline_up_1_2" sampledSeconds="2834.70" nVehEntered="53" nVehLeft="57" nVehSeen="104" meanSpeed="18.39" meanTimeLoss="1.39" meanOccupancy="11.77" maxOccupancy="12.67" meanMaxJamLengthInVehicles="0.00" meanMaxJamLengthInMeters="0.00" maxJamLengthInVehicles="0" maxJamLengthInMeters="0.00" jamLengthInVehiclesSum="0" jamLengthInMetersSum="0.00" meanHaltingDuration="0.00" maxHaltingDuration="0.00" haltingDurationSum="0.00" meanIntervalHaltingDuration="0.00" maxIntervalHaltingDuration="0.00" intervalHaltingDurationSum="0.00" startedHalts="0.00" meanVehicleNumber="47.73" maxVehicleNumber="52" />
   <interval begin="300.00" end="360.00" id="mainline_up_2_2" sampledSeconds="2980.60" nVehEntered="37" nVehLeft="47" nVehSeen="91" meanSpeed="18.96" meanTimeLoss="1.17" meanOccupancy="12.36" maxOccupancy="14.00" meanMaxJamLengthInVehicles="0.00" meanMaxJamLengthInMeters="0.00" maxJamLengthInVehicles="0" maxJamLengthInMeters="0.00" jamLengthInVehiclesSum="0" jamLengthInMetersSum="0.00" meanHaltingDuration="0.00" maxHaltingDuration="0.00" haltingDurationSum="0.00" meanIntervalHaltingDuration="0.00" maxIntervalHaltingDuration="0.00" intervalHaltingDurationSum="0.00" startedHalts="0.00" meanVehicleNumber="50.15" maxVehicleNumber="56" />
</detector>
