<?xml version="1.0" encoding="UTF-8"?>

<!-- generated on 03/07/19 00:14:19 by Eclipse SUMO Version 1.0.1
<configuration xmlns:xsi="http://www.w3.org/2001/XMLSchema-instance" xsi:noNamespaceSchemaLocation="http://sumo.dlr.de/xsd/sumoConfiguration.xsd">

    <input>
        <net-file value="./project/ramp.net.xml"/>
        <route-files value="./project/ramp.rou.xml"/>
        <additional-files value="./project/ramp.add.xml"/>
    </input>

    <time>
        <begin value="0"/>
        <end value="10000"/>
    </time>

    <report>
        <verbose value="true"/>
        <no-step-log value="true"/>
    </report>

    <traci_server>
        <remote-port value="60816"/>
    </traci_server>

    <random_number>
        <seed value="121981060"/>
    </random_number>

    <gui_only>
        <quit-on-end value="true"/>
        <start value="true"/>
    </gui_only>

</configuration>
-->

<detector xmlns:xsi="http://www.w3.org/2001/XMLSchema-instance" xsi:noNamespaceSchemaLocation="http://sumo.dlr.de/xsd/det_e2_file.xsd">
   <interval begin="0.00" end="60.00" id="mainline_up_0_2" sampledSeconds="263.30" nVehEntered="14" nVehLeft="3" nVehSeen="14" meanSpeed="21.16" meanTimeLoss="0.57" meanOccupancy="1.11" maxOccupancy="3.00" meanMaxJamLengthInVehicles="0.00" meanMaxJamLengthInMeters="0.00" maxJamLengthInVehicles="0" maxJamLengthInMeters="0.00" jamLengthInVehiclesSum="0" jamLengthInMetersSum="0.00" meanHaltingDuration="0.00" maxHaltingDuration="0.00" haltingDurationSum="0.00" meanIntervalHaltingDuration="0.00" maxIntervalHaltingDuration="0.00" intervalHaltingDurationSum="0.00" startedHalts="0.00" meanVehicleNumber="4.48" maxVehicleNumber="12" />
   <interval begin="0.00" end="60.00" id="mainline_up_1_2" sampledSeconds="235.63" nVehEntered="21" nVehLeft="6" nVehSeen="21" meanSpeed="21.91" meanTimeLoss="0.39" meanOccupancy="1.01" maxOccupancy="3.75" meanMaxJamLengthInVehicles="0.00" meanMaxJamLengthInMeters="0.00" maxJamLengthInVehicles="0" maxJamLengthInMeters="0.00" jamLengthInVehiclesSum="0" jamLengthInMetersSum="0.00" meanHaltingDuration="0.00" maxHaltingDuration="0.00" haltingDurationSum="0.00" meanIntervalHaltingDuration="0.00" maxIntervalHaltingDuration="0.00" intervalHaltingDurationSum="0.00" startedHalts="0.00" meanVehicleNumber="4.05" maxVehicleNumber="15" />
   <interval begin="0.00" end="60.00" id="mainline_up_2_2" sampledSeconds="207.25" nVehEntered="15" nVehLeft="4" nVehSeen="15" meanSpeed="22.28" meanTimeLoss="0.49" meanOccupancy="0.88" maxOccupancy="2.75" meanMaxJamLengthInVehicles="0.00" meanMaxJamLengthInMeters="0.00" maxJamLengthInVehicles="0" maxJamLengthInMeters="0.00" jamLengthInVehiclesSum="0" jamLengthInMetersSum="0.00" meanHaltingDuration="0.00" maxHaltingDuration="0.00" haltingDurationSum="0.00" meanIntervalHaltingDuration="0.00" maxIntervalHaltingDuration="0.00" intervalHaltingDurationSum="0.00" startedHalts="0.00" meanVehicleNumber="3.57" maxVehicleNumber="11" />
   <interval begin="60.00" end="120.00" id="mainline_up_0_2" sampledSeconds="1340.76" nVehEntered="33" nVehLeft="16" nVehSeen="44" meanSpeed="19.63" meanTimeLoss="1.49" meanOccupancy="5.61" maxOccupancy="7.00" meanMaxJamLengthInVehicles="0.00" meanMaxJamLengthInMeters="0.00" maxJamLengthInVehicles="0" maxJamLengthInMeters="0.00" jamLengthInVehiclesSum="0" jamLengthInMetersSum="0.00" meanHaltingDuration="0.00" maxHaltingDuration="0.00" haltingDurationSum="0.00" meanIntervalHaltingDuration="0.00" maxIntervalHaltingDuration="0.00" intervalHaltingDurationSum="0.00" startedHalts="0.00" meanVehicleNumber="22.60" maxVehicleNumber="29" />
   <interval begin="60.00" end="120.00" id="mainline_up_1_2" sampledSeconds="1644.49" nVehEntered="48" nVehLeft="23" nVehSeen="63" meanSpeed="20.98" meanTimeLoss="1.63" meanOccupancy="6.89" maxOccupancy="10.50" meanMaxJamLengthInVehicles="0.00" meanMaxJamLengthInMeters="0.00" maxJamLengthInVehicles="0" maxJamLengthInMeters="0.00" jamLengthInVehiclesSum="0" jamLengthInMetersSum="0.00" meanHaltingDuration="0.00" maxHaltingDuration="0.00" haltingDurationSum="0.00" meanIntervalHaltingDuration="0.00" maxIntervalHaltingDuration="0.00" intervalHaltingDurationSum="0.00" startedHalts="0.00" meanVehicleNumber="27.65" maxVehicleNumber="42" />
   <interval begin="60.00" end="120.00" id="mainline_up_2_2" sampledSeconds="1565.25" nVehEntered="40" nVehLeft="9" nVehSeen="51" meanSpeed="21.79" meanTimeLoss="1.84" meanOccupancy="6.56" maxOccupancy="10.50" meanMaxJamLengthInVehicles="0.00" meanMaxJamLengthInMeters="0.00" maxJamLengthInVehicles="0" maxJamLengthInMeters="0.00" jamLengthInVehiclesSum="0" jamLengthInMetersSum="0.00" meanHaltingDuration="0.00" maxHaltingDuration="0.00" haltingDurationSum="0.00" meanIntervalHaltingDuration="0.00" maxIntervalHaltingDuration="0.00" intervalHaltingDurationSum="0.00" startedHalts="0.00" meanVehicleNumber="26.35" maxVehicleNumber="42" />
   <interval begin="120.00" end="180.00" id="mainline_up_0_2" sampledSeconds="1849.31" nVehEntered="34" nVehLeft="31" nVehSeen="62" meanSpeed="18.84" meanTimeLoss="2.17" meanOccupancy="7.70" maxOccupancy="8.75" meanMaxJamLengthInVehicles="0.00" meanMaxJamLengthInMeters="0.00" maxJamLengthInVehicles="0" maxJamLengthInMeters="0.00" jamLengthInVehiclesSum="0" jamLengthInMetersSum="0.00" meanHaltingDuration="0.00" maxHaltingDuration="0.00" haltingDurationSum="0.00" meanIntervalHaltingDuration="0.00" maxIntervalHaltingDuration="0.00" intervalHaltingDurationSum="0.00" startedHalts="0.00" meanVehicleNumber="31.07" maxVehicleNumber="36" />
   <interval begin="120.00" end="180.00" id="mainline_up_1_2" sampledSeconds="2453.39" nVehEntered="52" nVehLeft="48" nVehSeen="92" meanSpeed="19.96" meanTimeLoss="2.24" meanOccupancy="10.21" maxOccupancy="11.50" meanMaxJamLengthInVehicles="0.00" meanMaxJamLengthInMeters="0.00" maxJamLengthInVehicles="0" maxJamLengthInMeters="0.00" jamLengthInVehiclesSum="0" jamLengthInMetersSum="0.00" meanHaltingDuration="0.00" maxHaltingDuration="0.00" haltingDurationSum="0.00" meanIntervalHaltingDuration="0.00" maxIntervalHaltingDuration="0.00" intervalHaltingDurationSum="0.00" startedHalts="0.00" meanVehicleNumber="41.22" maxVehicleNumber="47" />
   <interval begin="120.00" end="180.00" id="mainline_up_2_2" sampledSeconds="3021.34" nVehEntered="42" nVehLeft="34" nVehSeen="84" meanSpeed="21.30" meanTimeLoss="3.29" meanOccupancy="12.57" maxOccupancy="13.70" meanMaxJamLengthInVehicles="0.00" meanMaxJamLengthInMeters="0.00" maxJamLengthInVehicles="0" maxJamLengthInMeters="0.00" jamLengthInVehiclesSum="0" jamLengthInMetersSum="0.00" meanHaltingDuration="0.00" maxHaltingDuration="0.00" haltingDurationSum="0.00" meanIntervalHaltingDuration="0.00" maxIntervalHaltingDuration="0.00" intervalHaltingDurationSum="0.00" startedHalts="0.00" meanVehicleNumber="50.82" maxVehicleNumber="55" />
   <interval begin="180.00" end="240.00" id="mainline_up_0_2" sampledSeconds="1945.90" nVehEntered="36" nVehLeft="38" nVehSeen="67" meanSpeed="18.30" meanTimeLoss="2.68" meanOccupancy="8.10" maxOccupancy="8.97" meanMaxJamLengthInVehicles="0.00" meanMaxJamLengthInMeters="0.00" maxJamLengthInVehicles="0" maxJamLengthInMeters="0.00" jamLengthInVehiclesSum="0" jamLengthInMetersSum="0.00" meanHaltingDuration="0.00" maxHaltingDuration="0.00" haltingDurationSum="0.00" meanIntervalHaltingDuration="0.00" maxIntervalHaltingDuration="0.00" intervalHaltingDurationSum="0.00" startedHalts="0.00" meanVehicleNumber="32.80" maxVehicleNumber="36" />
   <interval begin="180.00" end="240.00" id="mainline_up_1_2" sampledSeconds="2553.58" nVehEntered="53" nVehLeft="54" nVehSeen="97" meanSpeed="19.94" meanTimeLoss="2.07" meanOccupancy="10.61" maxOccupancy="11.25" meanMaxJamLengthInVehicles="0.00" meanMaxJamLengthInMeters="0.00" maxJamLengthInVehicles="0" maxJamLengthInMeters="0.00" jamLengthInVehiclesSum="0" jamLengthInMetersSum="0.00" meanHaltingDuration="0.00" maxHaltingDuration="0.00" haltingDurationSum="0.00" meanIntervalHaltingDuration="0.00" maxIntervalHaltingDuration="0.00" intervalHaltingDurationSum="0.00" startedHalts="0.00" meanVehicleNumber="42.93" maxVehicleNumber="46" />
   <interval begin="180.00" end="240.00" id="mainline_up_2_2" sampledSeconds="3232.62" nVehEntered="46" nVehLeft="42" nVehSeen="96" meanSpeed="21.12" meanTimeLoss="3.08" meanOccupancy="13.43" maxOccupancy="14.00" meanMaxJamLengthInVehicles="0.00" meanMaxJamLengthInMeters="0.00" maxJamLengthInVehicles="0" maxJamLengthInMeters="0.00" jamLengthInVehiclesSum="0" jamLengthInMetersSum="0.00" meanHaltingDuration="0.00" maxHaltingDuration="0.00" haltingDurationSum="0.00" meanIntervalHaltingDuration="0.00" maxIntervalHaltingDuration="0.00" intervalHaltingDurationSum="0.00" startedHalts="0.00" meanVehicleNumber="54.42" maxVehicleNumber="57" />
   <interval begin="240.00" end="300.00" id="mainline_up_0_2" sampledSeconds="1850.17" nVehEntered="38" nVehLeft="32" nVehSeen="67" meanSpeed="18.03" meanTimeLoss="2.63" meanOccupancy="7.70" maxOccupancy="9.00" meanMaxJamLengthInVehicles="0.00" meanMaxJamLengthInMeters="0.00" maxJamLengthInVehicles="0" maxJamLengthInMeters="0.00" jamLengthInVehiclesSum="0" jamLengthInMetersSum="0.00" meanHaltingDuration="0.00" maxHaltingDuration="0.00" haltingDurationSum="0.00" meanIntervalHaltingDuration="0.00" maxIntervalHaltingDuration="0.00" intervalHaltingDurationSum="0.00" startedHalts="0.00" meanVehicleNumber="31.12" maxVehicleNumber="36" />
   <interval begin="240.00" end="300.00" id="mainline_up_1_2" sampledSeconds="2722.22" nVehEntered="57" nVehLeft="57" nVehSeen="100" meanSpeed="19.45" meanTimeLoss="2.70" meanOccupancy="11.31" maxOccupancy="12.50" meanMaxJamLengthInVehicles="0.00" meanMaxJamLengthInMeters="0.00" maxJamLengthInVehicles="0" maxJamLengthInMeters="0.00" jamLengthInVehiclesSum="0" jamLengthInMetersSum="0.00" meanHaltingDuration="0.00" maxHaltingDuration="0.00" haltingDurationSum="0.00" meanIntervalHaltingDuration="0.00" maxIntervalHaltingDuration="0.00" intervalHaltingDurationSum="0.00" startedHalts="0.00" meanVehicleNumber="45.83" maxVehicleNumber="50" />
   <interval begin="240.00" end="300.00" id="mainline_up_2_2" sampledSeconds="3233.44" nVehEntered="42" nVehLeft="44" nVehSeen="96" meanSpeed="20.98" meanTimeLoss="2.70" meanOccupancy="13.43" maxOccupancy="14.00" meanMaxJamLengthInVehicles="0.00" meanMaxJamLengthInMeters="0.00" maxJamLengthInVehicles="0" maxJamLengthInMeters="0.00" jamLengthInVehiclesSum="0" jamLengthInMetersSum="0.00" meanHaltingDuration="0.00" maxHaltingDuration="0.00" haltingDurationSum="0.00" meanIntervalHaltingDuration="0.00" maxIntervalHaltingDuration="0.00" intervalHaltingDurationSum="0.00" startedHalts="0.00" meanVehicleNumber="54.43" maxVehicleNumber="57" />
   <interval begin="300.00" end="360.00" id="mainline_up_0_2" sampledSeconds="2133.96" nVehEntered="35" nVehLeft="30" nVehSeen="70" meanSpeed="18.25" meanTimeLoss="2.81" meanOccupancy="8.89" maxOccupancy="10.00" meanMaxJamLengthInVehicles="0.00" meanMaxJamLengthInMeters="0.00" maxJamLengthInVehicles="0" maxJamLengthInMeters="0.00" jamLengthInVehiclesSum="0" jamLengthInMetersSum="0.00" meanHaltingDuration="0.00" maxHaltingDuration="0.00" haltingDurationSum="0.00" meanIntervalHaltingDuration="0.00" maxIntervalHaltingDuration="0.00" intervalHaltingDurationSum="0.00" startedHalts="0.00" meanVehicleNumber="35.85" maxVehicleNumber="40" />
   <interval begin="300.00" end="360.00" id="mainline_up_1_2" sampledSeconds="2641.84" nVehEntered="55" nVehLeft="54" nVehSeen="98" meanSpeed="19.38" meanTimeLoss="2.61" meanOccupancy="10.98" maxOccupancy="12.25" meanMaxJamLengthInVehicles="0.00" meanMaxJamLengthInMeters="0.00" maxJamLengthInVehicles="0" maxJamLengthInMeters="0.00" jamLengthInVehiclesSum="0" jamLengthInMetersSum="0.00" meanHaltingDuration="0.00" maxHaltingDuration="0.00" haltingDurationSum="0.00" meanIntervalHaltingDuration="0.00" maxIntervalHaltingDuration="0.00" intervalHaltingDurationSum="0.00" startedHalts="0.00" meanVehicleNumber="44.50" maxVehicleNumber="50" />
   <interval begin="300.00" end="360.00" id="mainline_up_2_2" sampledSeconds="3042.77" nVehEntered="40" nVehLeft="38" nVehSeen="92" meanSpeed="20.82" meanTimeLoss="2.96" meanOccupancy="12.64" maxOccupancy="14.00" meanMaxJamLengthInVehicles="0.00" meanMaxJamLengthInMeters="0.00" maxJamLengthInVehicles="0" maxJamLengthInMeters="0.00" jamLengthInVehiclesSum="0" jamLengthInMetersSum="0.00" meanHaltingDuration="0.00" maxHaltingDuration="0.00" haltingDurationSum="0.00" meanIntervalHaltingDuration="0.00" maxIntervalHaltingDuration="0.00" intervalHaltingDurationSum="0.00" startedHalts="0.00" meanVehicleNumber="51.17" maxVehicleNumber="57" />
   <interval begin="360.00" end="420.00" id="mainline_up_0_2" sampledSeconds="2363.53" nVehEntered="30" nVehLeft="31" nVehSeen="70" meanSpeed="18.25" meanTimeLoss="4.02" meanOccupancy="9.83" maxOccupancy="10.52" meanMaxJamLengthInVehicles="0.00" meanMaxJamLengthInMeters="0.00" maxJamLengthInVehicles="0" maxJamLengthInMeters="0.00" jamLengthInVehiclesSum="0" jamLengthInMetersSum="0.00" meanHaltingDuration="0.00" maxHaltingDuration="0.00" haltingDurationSum="0.00" meanIntervalHaltingDuration="0.00" maxIntervalHaltingDuration="0.00" intervalHaltingDurationSum="0.00" startedHalts="0.00" meanVehicleNumber="39.77" maxVehicleNumber="43" />
   <interval begin="360.00" end="420.00" id="mainline_up_1_2" sampledSeconds="2767.21" nVehEntered="50" nVehLeft="46" nVehSeen="94" meanSpeed="18.88" meanTimeLoss="3.63" meanOccupancy="11.50" maxOccupancy="13.00" meanMaxJamLengthInVehicles="0.00" meanMaxJamLengthInMeters="0.00" maxJamLengthInVehicles="0" maxJamLengthInMeters="0.00" jamLengthInVehiclesSum="0" jamLengthInMetersSum="0.00" meanHaltingDuration="0.00" maxHaltingDuration="0.00" haltingDurationSum="0.00" meanIntervalHaltingDuration="0.00" maxIntervalHaltingDuration="0.00" intervalHaltingDurationSum="0.00" startedHalts="0.00" meanVehicleNumber="46.62" maxVehicleNumber="52" />
   <interval begin="360.00" end="420.00" id="mainline_up_2_2" sampledSeconds="2997.75" nVehEntered="40" nVehLeft="45" nVehSeen="94" meanSpeed="20.18" meanTimeLoss="3.80" meanOccupancy="12.44" maxOccupancy="13.50" meanMaxJamLengthInVehicles="0.00" meanMaxJamLengthInMeters="0.00" maxJamLengthInVehicles="0" maxJamLengthInMeters="0.00" jamLengthInVehiclesSum="0" jamLengthInMetersSum="0.00" meanHaltingDuration="0.00" maxHaltingDuration="0.00" haltingDurationSum="0.00" meanIntervalHaltingDuration="0.00" maxIntervalHaltingDuration="0.00" intervalHaltingDurationSum="0.00" startedHalts="0.00" meanVehicleNumber="50.47" maxVehicleNumber="54" />
   <interval begin="420.00" end="480.00" id="mainline_up_0_2" sampledSeconds="2411.92" nVehEntered="33" nVehLeft="36" nVehSeen="72" meanSpeed="18.07" meanTimeLoss="4.49" meanOccupancy="10.03" maxOccupancy="11.25" meanMaxJamLengthInVehicles="0.00" meanMaxJamLengthInMeters="0.00" maxJamLengthInVehicles="0" maxJamLengthInMeters="0.00" jamLengthInVehiclesSum="0" jamLengthInMetersSum="0.00" meanHaltingDuration="0.00" maxHaltingDuration="0.00" haltingDurationSum="0.00" meanIntervalHaltingDuration="0.00" maxIntervalHaltingDuration="0.00" intervalHaltingDurationSum="0.00" startedHalts="0.00" meanVehicleNumber="40.58" maxVehicleNumber="46" />
   <interval begin="420.00" end="480.00" id="mainline_up_1_2" sampledSeconds="2889.99" nVehEntered="49" nVehLeft="51" nVehSeen="97" meanSpeed="19.05" meanTimeLoss="3.86" meanOccupancy="12.01" maxOccupancy="12.90" meanMaxJamLengthInVehicles="0.00" meanMaxJamLengthInMeters="0.00" maxJamLengthInVehicles="0" maxJamLengthInMeters="0.00" jamLengthInVehiclesSum="0" jamLengthInMetersSum="0.00" meanHaltingDuration="0.00" maxHaltingDuration="0.00" haltingDurationSum="0.00" meanIntervalHaltingDuration="0.00" maxIntervalHaltingDuration="0.00" intervalHaltingDurationSum="0.00" startedHalts="0.00" meanVehicleNumber="48.67" maxVehicleNumber="52" />
   <interval begin="420.00" end="480.00" id="mainline_up_2_2" sampledSeconds="3105.58" nVehEntered="41" nVehLeft="39" nVehSeen="90" meanSpeed="20.53" meanTimeLoss="3.78" meanOccupancy="12.91" maxOccupancy="14.25" meanMaxJamLengthInVehicles="0.00" meanMaxJamLengthInMeters="0.00" maxJamLengthInVehicles="0" maxJamLengthInMeters="0.00" jamLengthInVehiclesSum="0" jamLengthInMetersSum="0.00" meanHaltingDuration="0.00" maxHaltingDuration="0.00" haltingDurationSum="0.00" meanIntervalHaltingDuration="0.00" maxIntervalHaltingDuration="0.00" intervalHaltingDurationSum="0.00" startedHalts="0.00" meanVehicleNumber="52.25" maxVehicleNumber="57" />
   <interval begin="480.00" end="540.00" id="mainline_up_0_2" sampledSeconds="2105.16" nVehEntered="28" nVehLeft="34" nVehSeen="64" meanSpeed="18.50" meanTimeLoss="3.39" meanOccupancy="8.75" maxOccupancy="10.00" meanMaxJamLengthInVehicles="0.00" meanMaxJamLengthInMeters="0.00" maxJamLengthInVehicles="0" maxJamLengthInMeters="0.00" jamLengthInVehiclesSum="0" jamLengthInMetersSum="0.00" meanHaltingDuration="0.00" maxHaltingDuration="0.00" haltingDurationSum="0.00" meanIntervalHaltingDuration="0.00" maxIntervalHaltingDuration="0.00" intervalHaltingDurationSum="0.00" startedHalts="0.00" meanVehicleNumber="35.35" maxVehicleNumber="41" />
   <interval begin="480.00" end="540.00" id="mainline_up_1_2" sampledSeconds="2686.08" nVehEntered="51" nVehLeft="50" nVehSeen="97" meanSpeed="19.68" meanTimeLoss="2.78" meanOccupancy="11.15" maxOccupancy="12.60" meanMaxJamLengthInVehicles="0.00" meanMaxJamLengthInMeters="0.00" maxJamLengthInVehicles="0" maxJamLengthInMeters="0.00" jamLengthInVehiclesSum="0" jamLengthInMetersSum="0.00" meanHaltingDuration="0.00" maxHaltingDuration="0.00" haltingDurationSum="0.00" meanIntervalHaltingDuration="0.00" maxIntervalHaltingDuration="0.00" intervalHaltingDurationSum="0.00" startedHalts="0.00" meanVehicleNumber="45.20" maxVehicleNumber="51" />
   <interval begin="480.00" end="540.00" id="mainline_up_2_2" sampledSeconds="3117.68" nVehEntered="45" nVehLeft="41" nVehSeen="96" meanSpeed="20.94" meanTimeLoss="2.98" meanOccupancy="12.95" maxOccupancy="13.75" meanMaxJamLengthInVehicles="0.00" meanMaxJamLengthInMeters="0.00" maxJamLengthInVehicles="0" maxJamLengthInMeters="0.00" jamLengthInVehiclesSum="0" jamLengthInMetersSum="0.00" meanHaltingDuration="0.00" maxHaltingDuration="0.00" haltingDurationSum="0.00" meanIntervalHaltingDuration="0.00" maxIntervalHaltingDuration="0.00" intervalHaltingDurationSum="0.00" startedHalts="0.00" meanVehicleNumber="52.50" maxVehicleNumber="56" />
   <interval begin="540.00" end="600.00" id="mainline_up_0_2" sampledSeconds="1744.87" nVehEntered="32" nVehLeft="31" nVehSeen="62" meanSpeed="18.10" meanTimeLoss="2.50" meanOccupancy="7.27" maxOccupancy="8.25" meanMaxJamLengthInVehicles="0.00" meanMaxJamLengthInMeters="0.00" maxJamLengthInVehicles="0" maxJamLengthInMeters="0.00" jamLengthInVehiclesSum="0" jamLengthInMetersSum="0.00" meanHaltingDuration="0.00" maxHaltingDuration="0.00" haltingDurationSum="0.00" meanIntervalHaltingDuration="0.00" maxIntervalHaltingDuration="0.00" intervalHaltingDurationSum="0.00" startedHalts="0.00" meanVehicleNumber="29.45" maxVehicleNumber="33" />
   <interval begin="540.00" end="600.00" id="mainline_up_1_2" sampledSeconds="2979.53" nVehEntered="51" nVehLeft="50" nVehSeen="98" meanSpeed="19.74" meanTimeLoss="2.94" meanOccupancy="12.37" maxOccupancy="13.75" meanMaxJamLengthInVehicles="0.00" meanMaxJamLengthInMeters="0.00" maxJamLengthInVehicles="0" maxJamLengthInMeters="0.00" jamLengthInVehiclesSum="0" jamLengthInMetersSum="0.00" meanHaltingDuration="0.00" maxHaltingDuration="0.00" haltingDurationSum="0.00" meanIntervalHaltingDuration="0.00" maxIntervalHaltingDuration="0.00" intervalHaltingDurationSum="0.00" startedHalts="0.00" meanVehicleNumber="50.15" maxVehicleNumber="55" />
   <interval begin="540.00" end="600.00" id="mainline_up_2_2" sampledSeconds="3170.23" nVehEntered="39" nVehLeft="40" nVehSeen="94" meanSpeed="21.01" meanTimeLoss="3.24" meanOccupancy="13.17" maxOccupancy="14.00" meanMaxJamLengthInVehicles="0.00" meanMaxJamLengthInMeters="0.00" maxJamLengthInVehicles="0" maxJamLengthInMeters="0.00" jamLengthInVehiclesSum="0" jamLengthInMetersSum="0.00" meanHaltingDuration="0.00" maxHaltingDuration="0.00" haltingDurationSum="0.00" meanIntervalHaltingDuration="0.00" maxIntervalHaltingDuration="0.00" intervalHaltingDurationSum="0.00" startedHalts="0.00" meanVehicleNumber="53.38" maxVehicleNumber="57" />
   <interval begin="600.00" end="660.00" id="mainline_up_0_2" sampledSeconds="2036.45" nVehEntered="38" nVehLeft="35" nVehSeen="69" meanSpeed="18.02" meanTimeLoss="2.87" meanOccupancy="8.49" maxOccupancy="9.25" meanMaxJamLengthInVehicles="0.00" meanMaxJamLengthInMeters="0.00" maxJamLengthInVehicles="0" maxJamLengthInMeters="0.00" jamLengthInVehiclesSum="0" jamLengthInMetersSum="0.00" meanHaltingDuration="0.00" maxHaltingDuration="0.00" haltingDurationSum="0.00" meanIntervalHaltingDuration="0.00" maxIntervalHaltingDuration="0.00" intervalHaltingDurationSum="0.00" startedHalts="0.00" meanVehicleNumber="34.25" maxVehicleNumber="38" />
   <interval begin="600.00" end="660.00" id="mainline_up_1_2" sampledSeconds="2645.09" nVehEntered="59" nVehLeft="61" nVehSeen="107" meanSpeed="19.83" meanTimeLoss="2.35" meanOccupancy="10.98" maxOccupancy="12.25" meanMaxJamLengthInVehicles="0.00" meanMaxJamLengthInMeters="0.00" maxJamLengthInVehicles="0" maxJamLengthInMeters="0.00" jamLengthInVehiclesSum="0" jamLengthInMetersSum="0.00" meanHaltingDuration="0.00" maxHaltingDuration="0.00" haltingDurationSum="0.00" meanIntervalHaltingDuration="0.00" maxIntervalHaltingDuration="0.00" intervalHaltingDurationSum="0.00" startedHalts="0.00" meanVehicleNumber="44.63" maxVehicleNumber="49" />
   <interval begin="600.00" end="660.00" id="mainline_up_2_2" sampledSeconds="3192.41" nVehEntered="41" nVehLeft="46" nVehSeen="95" meanSpeed="20.84" meanTimeLoss="3.07" meanOccupancy="13.25" maxOccupancy="13.75" meanMaxJamLengthInVehicles="0.00" meanMaxJamLengthInMeters="0.00" maxJamLengthInVehicles="0" maxJamLengthInMeters="0.00" jamLengthInVehiclesSum="0" jamLengthInMetersSum="0.00" meanHaltingDuration="0.00" maxHaltingDuration="0.00" haltingDurationSum="0.00" meanIntervalHaltingDuration="0.00" maxIntervalHaltingDuration="0.00" intervalHaltingDurationSum="0.00" startedHalts="0.00" meanVehicleNumber="53.73" maxVehicleNumber="56" />
   <interval begin="660.00" end="720.00" id="mainline_up_0_2" sampledSeconds="2146.80" nVehEntered="37" nVehLeft="38" nVehSeen="71" meanSpeed="18.02" meanTimeLoss="3.40" meanOccupancy="8.94" maxOccupancy="9.50" meanMaxJamLengthInVehicles="0.00" meanMaxJamLengthInMeters="0.00" maxJamLengthInVehicles="0" maxJamLengthInMeters="0.00" jamLengthInVehiclesSum="0" jamLengthInMetersSum="0.00" meanHaltingDuration="0.00" maxHaltingDuration="0.00" haltingDurationSum="0.00" meanIntervalHaltingDuration="0.00" maxIntervalHaltingDuration="0.00" intervalHaltingDurationSum="0.00" startedHalts="0.00" meanVehicleNumber="36.13" maxVehicleNumber="39" />
   <interval begin="660.00" end="720.00" id="mainline_up_1_2" sampledSeconds="2651.38" nVehEntered="60" nVehLeft="58" nVehSeen="106" meanSpeed="18.97" meanTimeLoss="2.97" meanOccupancy="11.01" maxOccupancy="11.78" meanMaxJamLengthInVehicles="0.00" meanMaxJamLengthInMeters="0.00" maxJamLengthInVehicles="0" maxJamLengthInMeters="0.00" jamLengthInVehiclesSum="0" jamLengthInMetersSum="0.00" meanHaltingDuration="0.00" maxHaltingDuration="0.00" haltingDurationSum="0.00" meanIntervalHaltingDuration="0.00" maxIntervalHaltingDuration="0.00" intervalHaltingDurationSum="0.00" startedHalts="0.00" meanVehicleNumber="44.63" maxVehicleNumber="48" />
   <interval begin="660.00" end="720.00" id="mainline_up_2_2" sampledSeconds="2958.06" nVehEntered="47" nVehLeft="46" nVehSeen="96" meanSpeed="20.55" meanTimeLoss="3.38" meanOccupancy="12.28" maxOccupancy="12.75" meanMaxJamLengthInVehicles="0.00" meanMaxJamLengthInMeters="0.00" maxJamLengthInVehicles="0" maxJamLengthInMeters="0.00" jamLengthInVehiclesSum="0" jamLengthInMetersSum="0.00" meanHaltingDuration="0.00" maxHaltingDuration="0.00" haltingDurationSum="0.00" meanIntervalHaltingDuration="0.00" maxIntervalHaltingDuration="0.00" intervalHaltingDurationSum="0.00" startedHalts="0.00" meanVehicleNumber="49.82" maxVehicleNumber="52" />
   <interval begin="720.00" end="780.00" id="mainline_up_0_2" sampledSeconds="2054.25" nVehEntered="31" nVehLeft="29" nVehSeen="64" meanSpeed="18.15" meanTimeLoss="3.23" meanOccupancy="8.54" maxOccupancy="9.25" meanMaxJamLengthInVehicles="0.00" meanMaxJamLengthInMeters="0.00" maxJamLengthInVehicles="0" maxJamLengthInMeters="0.00" jamLengthInVehiclesSum="0" jamLengthInMetersSum="0.00" meanHaltingDuration="0.00" maxHaltingDuration="0.00" haltingDurationSum="0.00" meanIntervalHaltingDuration="0.00" maxIntervalHaltingDuration="0.00" intervalHaltingDurationSum="0.00" startedHalts="0.00" meanVehicleNumber="34.52" maxVehicleNumber="37" />
   <interval begin="720.00" end="780.00" id="mainline_up_1_2" sampledSeconds="2897.56" nVehEntered="56" nVehLeft="54" nVehSeen="104" meanSpeed="18.85" meanTimeLoss="3.43" meanOccupancy="12.06" maxOccupancy="13.00" meanMaxJamLengthInVehicles="0.00" meanMaxJamLengthInMeters="0.00" maxJamLengthInVehicles="0" maxJamLengthInMeters="0.00" jamLengthInVehiclesSum="0" jamLengthInMetersSum="0.00" meanHaltingDuration="0.00" maxHaltingDuration="0.00" haltingDurationSum="0.00" meanIntervalHaltingDuration="0.00" maxIntervalHaltingDuration="0.00" intervalHaltingDurationSum="0.00" startedHalts="0.00" meanVehicleNumber="48.78" maxVehicleNumber="53" />
   <interval begin="720.00" end="780.00" id="mainline_up_2_2" sampledSeconds="3188.82" nVehEntered="49" nVehLeft="39" nVehSeen="99" meanSpeed="20.23" meanTimeLoss="3.99" meanOccupancy="13.27" maxOccupancy="15.00" meanMaxJamLengthInVehicles="0.00" meanMaxJamLengthInMeters="0.00" maxJamLengthInVehicles="0" maxJamLengthInMeters="0.00" jamLengthInVehiclesSum="0" jamLengthInMetersSum="0.00" meanHaltingDuration="0.00" maxHaltingDuration="0.00" haltingDurationSum="0.00" meanIntervalHaltingDuration="0.00" maxIntervalHaltingDuration="0.00" intervalHaltingDurationSum="0.00" startedHalts="0.00" meanVehicleNumber="53.63" maxVehicleNumber="61" />
   <interval begin="780.00" end="840.00" id="mainline_up_0_2" sampledSeconds="2147.13" nVehEntered="32" nVehLeft="34" nVehSeen="67" meanSpeed="17.10" meanTimeLoss="4.91" meanOccupancy="8.91" maxOccupancy="10.00" meanMaxJamLengthInVehicles="0.18" meanMaxJamLengthInMeters="0.92" maxJamLengthInVehicles="2" maxJamLengthInMeters="13.22" jamLengthInVehiclesSum="11" jamLengthInMetersSum="55.27" meanHaltingDuration="3.20" maxHaltingDuration="7.00" haltingDurationSum="16.00" meanIntervalHaltingDuration="3.20" maxIntervalHaltingDuration="7.00" intervalHaltingDurationSum="16.00" startedHalts="5.00" meanVehicleNumber="36.08" maxVehicleNumber="40" />
   <interval begin="780.00" end="840.00" id="mainline_up_1_2" sampledSeconds="2941.44" nVehEntered="54" nVehLeft="57" nVehSeen="104" meanSpeed="18.83" meanTimeLoss="3.68" meanOccupancy="12.22" maxOccupancy="13.75" meanMaxJamLengthInVehicles="0.00" meanMaxJamLengthInMeters="0.00" maxJamLengthInVehicles="0" maxJamLengthInMeters="0.00" jamLengthInVehiclesSum="0" jamLengthInMetersSum="0.00" meanHaltingDuration="0.00" maxHaltingDuration="0.00" haltingDurationSum="0.00" meanIntervalHaltingDuration="0.00" maxIntervalHaltingDuration="0.00" intervalHaltingDurationSum="0.00" startedHalts="0.00" meanVehicleNumber="49.48" maxVehicleNumber="56" />
   <interval begin="780.00" end="840.00" id="mainline_up_2_2" sampledSeconds="3393.39" nVehEntered="43" nVehLeft="46" nVehSeen="103" meanSpeed="20.45" meanTimeLoss="3.61" meanOccupancy="14.09" maxOccupancy="15.00" meanMaxJamLengthInVehicles="0.00" meanMaxJamLengthInMeters="0.00" maxJamLengthInVehicles="0" maxJamLengthInMeters="0.00" jamLengthInVehiclesSum="0" jamLengthInMetersSum="0.00" meanHaltingDuration="0.00" maxHaltingDuration="0.00" haltingDurationSum="0.00" meanIntervalHaltingDuration="0.00" maxIntervalHaltingDuration="0.00" intervalHaltingDurationSum="0.00" startedHalts="0.00" meanVehicleNumber="57.13" maxVehicleNumber="61" />
   <interval begin="840.00" end="900.00" id="mainline_up_0_2" sampledSeconds="2079.06" nVehEntered="39" nVehLeft="37" nVehSeen="72" meanSpeed="18.03" meanTimeLoss="3.03" meanOccupancy="8.65" maxOccupancy="9.48" meanMaxJamLengthInVehicles="0.00" meanMaxJamLengthInMeters="0.00" maxJamLengthInVehicles="0" maxJamLengthInMeters="0.00" jamLengthInVehiclesSum="0" jamLengthInMetersSum="0.00" meanHaltingDuration="0.00" maxHaltingDuration="0.00" haltingDurationSum="0.00" meanIntervalHaltingDuration="0.00" maxIntervalHaltingDuration="0.00" intervalHaltingDurationSum="0.00" startedHalts="0.00" meanVehicleNumber="34.98" maxVehicleNumber="38" />
   <interval begin="840.00" end="900.00" id="mainline_up_1_2" sampledSeconds="2770.65" nVehEntered="57" nVehLeft="57" nVehSeen="104" meanSpeed="19.18" meanTimeLoss="3.27" meanOccupancy="11.52" maxOccupancy="12.50" meanMaxJamLengthInVehicles="0.00" meanMaxJamLengthInMeters="0.00" maxJamLengthInVehicles="0" maxJamLengthInMeters="0.00" jamLengthInVehiclesSum="0" jamLengthInMetersSum="0.00" meanHaltingDuration="0.00" maxHaltingDuration="0.00" haltingDurationSum="0.00" meanIntervalHaltingDuration="0.00" maxIntervalHaltingDuration="0.00" intervalHaltingDurationSum="0.00" startedHalts="0.00" meanVehicleNumber="46.58" maxVehicleNumber="51" />
   <interval begin="840.00" end="900.00" id="mainline_up_2_2" sampledSeconds="3339.55" nVehEntered="42" nVehLeft="44" nVehSeen="99" meanSpeed="20.95" meanTimeLoss="3.24" meanOccupancy="13.88" maxOccupancy="14.50" meanMaxJamLengthInVehicles="0.00" meanMaxJamLengthInMeters="0.00" maxJamLengthInVehicles="0" maxJamLengthInMeters="0.00" jamLengthInVehiclesSum="0" jamLengthInMetersSum="0.00" meanHaltingDuration="0.00" maxHaltingDuration="0.00" haltingDurationSum="0.00" meanIntervalHaltingDuration="0.00" maxIntervalHaltingDuration="0.00" intervalHaltingDurationSum="0.00" startedHalts="0.00" meanVehicleNumber="56.18" maxVehicleNumber="59" />