<?xml version="1.0" encoding="UTF-8"?>

<!-- generated on 03/01/19 11:51:11 by Eclipse SUMO Version 1.0.1
<configuration xmlns:xsi="http://www.w3.org/2001/XMLSchema-instance" xsi:noNamespaceSchemaLocation="http://sumo.dlr.de/xsd/sumoConfiguration.xsd">

    <input>
        <net-file value="./project/ramp.net.xml"/>
        <route-files value="./project/ramp.rou.xml"/>
        <additional-files value="./project/ramp.add.xml"/>
    </input>

    <time>
        <begin value="0"/>
    </time>

    <report>
        <verbose value="true"/>
        <no-step-log value="true"/>
    </report>

    <traci_server>
        <remote-port value="47351"/>
    </traci_server>

    <random_number>
        <seed value="1715341539"/>
    </random_number>

    <gui_only>
        <quit-on-end value="true"/>
        <start value="true"/>
    </gui_only>

</configuration>-->

<detector xmlns:xsi="http://www.w3.org/2001/XMLSchema-instance" xsi:noNamespaceSchemaLocation="http://sumo.dlr.de/xsd/det_e2_file.xsd">
   <interval begin="0.00" end="60.00" id="mainline_up_0_2" sampledSeconds="0.00" nVehEntered="0" nVehLeft="0" nVehSeen="0" meanSpeed="-1.00" meanTimeLoss="-1.00" meanOccupancy="0.00" maxOccupancy="0.00" meanMaxJamLengthInVehicles="0.00" meanMaxJamLengthInMeters="0.00" maxJamLengthInVehicles="0" maxJamLengthInMeters="0.00" jamLengthInVehiclesSum="0" jamLengthInMetersSum="0.00" meanHaltingDuration="0.00" maxHaltingDuration="0.00" haltingDurationSum="0.00" meanIntervalHaltingDuration="0.00" maxIntervalHaltingDuration="0.00" intervalHaltingDurationSum="0.00" startedHalts="0.00" meanVehicleNumber="0.00" maxVehicleNumber="0" />
   <interval begin="0.00" end="60.00" id="mainline_up_1_2" sampledSeconds="0.00" nVehEntered="0" nVehLeft="0" nVehSeen="0" meanSpeed="-1.00" meanTimeLoss="-1.00" meanOccupancy="0.00" maxOccupancy="0.00" meanMaxJamLengthInVehicles="0.00" meanMaxJamLengthInMeters="0.00" maxJamLengthInVehicles="0" maxJamLengthInMeters="0.00" jamLengthInVehiclesSum="0" jamLengthInMetersSum="0.00" meanHaltingDuration="0.00" maxHaltingDuration="0.00" haltingDurationSum="0.00" meanIntervalHaltingDuration="0.00" maxIntervalHaltingDuration="0.00" intervalHaltingDurationSum="0.00" startedHalts="0.00" meanVehicleNumber="0.00" maxVehicleNumber="0" />
   <interval begin="0.00" end="60.00" id="mainline_up_2_2" sampledSeconds="0.00" nVehEntered="0" nVehLeft="0" nVehSeen="0" meanSpeed="-1.00" meanTimeLoss="-1.00" meanOccupancy="0.00" maxOccupancy="0.00" meanMaxJamLengthInVehicles="0.00" meanMaxJamLengthInMeters="0.00" maxJamLengthInVehicles="0" maxJamLengthInMeters="0.00" jamLengthInVehiclesSum="0" jamLengthInMetersSum="0.00" meanHaltingDuration="0.00" maxHaltingDuration="0.00" haltingDurationSum="0.00" meanIntervalHaltingDuration="0.00" maxIntervalHaltingDuration="0.00" intervalHaltingDurationSum="0.00" startedHalts="0.00" meanVehicleNumber="0.00" maxVehicleNumber="0" />

   <interval begin="60.00" end="120.00" id="mainline_up_0_2" sampledSeconds="291.31" nVehEntered="14" nVehLeft="3" nVehSeen="14" meanSpeed="16.36" meanTimeLoss="0.51" meanOccupancy="3.09" maxOccupancy="7.54" meanMaxJamLengthInVehicles="0.00" meanMaxJamLengthInMeters="0.00" maxJamLengthInVehicles="0" maxJamLengthInMeters="0.00" jamLengthInVehiclesSum="0" jamLengthInMetersSum="0.00" meanHaltingDuration="0.00" maxHaltingDuration="0.00" haltingDurationSum="0.00" meanIntervalHaltingDuration="0.00" maxIntervalHaltingDuration="0.00" intervalHaltingDurationSum="0.00" startedHalts="0.00" meanVehicleNumber="4.98" maxVehicleNumber="12" />
   <interval begin="60.00" end="120.00" id="mainline_up_1_2" sampledSeconds="245.37" nVehEntered="18" nVehLeft="6" nVehSeen="18" meanSpeed="16.35" meanTimeLoss="0.35" meanOccupancy="2.60" maxOccupancy="8.17" meanMaxJamLengthInVehicles="0.00" meanMaxJamLengthInMeters="0.00" maxJamLengthInVehicles="0" maxJamLengthInMeters="0.00" jamLengthInVehiclesSum="0" jamLengthInMetersSum="0.00" meanHaltingDuration="0.00" maxHaltingDuration="0.00" haltingDurationSum="0.00" meanIntervalHaltingDuration="0.00" maxIntervalHaltingDuration="0.00" intervalHaltingDurationSum="0.00" startedHalts="0.00" meanVehicleNumber="4.25" maxVehicleNumber="13" />
   <interval begin="60.00" end="120.00" id="mainline_up_2_2" sampledSeconds="243.64" nVehEntered="17" nVehLeft="5" nVehSeen="17" meanSpeed="18.05" meanTimeLoss="0.56" meanOccupancy="2.61" maxOccupancy="7.54" meanMaxJamLengthInVehicles="0.00" meanMaxJamLengthInMeters="0.00" maxJamLengthInVehicles="0" maxJamLengthInMeters="0.00" jamLengthInVehiclesSum="0" jamLengthInMetersSum="0.00" meanHaltingDuration="0.00" maxHaltingDuration="0.00" haltingDurationSum="0.00" meanIntervalHaltingDuration="0.00" maxIntervalHaltingDuration="0.00" intervalHaltingDurationSum="0.00" startedHalts="0.00" meanVehicleNumber="4.18" maxVehicleNumber="12" />
   <interval begin="120.00" end="180.00" id="mainline_up_0_2" sampledSeconds="789.87" nVehEntered="25" nVehLeft="23" nVehSeen="36" meanSpeed="17.28" meanTimeLoss="1.29" meanOccupancy="8.23" maxOccupancy="9.42" meanMaxJamLengthInVehicles="0.00" meanMaxJamLengthInMeters="0.00" maxJamLengthInVehicles="0" maxJamLengthInMeters="0.00" jamLengthInVehiclesSum="0" jamLengthInMetersSum="0.00" meanHaltingDuration="0.00" maxHaltingDuration="0.00" haltingDurationSum="0.00" meanIntervalHaltingDuration="0.00" maxIntervalHaltingDuration="0.00" intervalHaltingDurationSum="0.00" startedHalts="0.00" meanVehicleNumber="13.45" maxVehicleNumber="16" />
   <interval begin="120.00" end="180.00" id="mainline_up_1_2" sampledSeconds="1131.89" nVehEntered="42" nVehLeft="35" nVehSeen="54" meanSpeed="17.81" meanTimeLoss="1.11" meanOccupancy="11.80" maxOccupancy="13.82" meanMaxJamLengthInVehicles="0.00" meanMaxJamLengthInMeters="0.00" maxJamLengthInVehicles="0" maxJamLengthInMeters="0.00" jamLengthInVehiclesSum="0" jamLengthInMetersSum="0.00" meanHaltingDuration="0.00" maxHaltingDuration="0.00" haltingDurationSum="0.00" meanIntervalHaltingDuration="0.00" maxIntervalHaltingDuration="0.00" intervalHaltingDurationSum="0.00" startedHalts="0.00" meanVehicleNumber="19.32" maxVehicleNumber="22" />
   <interval begin="120.00" end="180.00" id="mainline_up_2_2" sampledSeconds="1200.60" nVehEntered="36" nVehLeft="25" nVehSeen="48" meanSpeed="18.07" meanTimeLoss="1.49" meanOccupancy="12.59" maxOccupancy="16.02" meanMaxJamLengthInVehicles="0.00" meanMaxJamLengthInMeters="0.00" maxJamLengthInVehicles="0" maxJamLengthInMeters="0.00" jamLengthInVehiclesSum="0" jamLengthInMetersSum="0.00" meanHaltingDuration="0.00" maxHaltingDuration="0.00" haltingDurationSum="0.00" meanIntervalHaltingDuration="0.00" maxIntervalHaltingDuration="0.00" intervalHaltingDurationSum="0.00" startedHalts="0.00" meanVehicleNumber="20.45" maxVehicleNumber="26" />
   <interval begin="180.00" end="240.00" id="mainline_up_0_2" sampledSeconds="865.20" nVehEntered="26" nVehLeft="28" nVehSeen="39" meanSpeed="18.14" meanTimeLoss="1.34" meanOccupancy="8.96" maxOccupancy="11.31" meanMaxJamLengthInVehicles="0.00" meanMaxJamLengthInMeters="0.00" maxJamLengthInVehicles="0" maxJamLengthInMeters="0.00" jamLengthInVehiclesSum="0" jamLengthInMetersSum="0.00" meanHaltingDuration="0.00" maxHaltingDuration="0.00" haltingDurationSum="0.00" meanIntervalHaltingDuration="0.00" maxIntervalHaltingDuration="0.00" intervalHaltingDurationSum="0.00" startedHalts="0.00" meanVehicleNumber="14.73" maxVehicleNumber="19" />
   <interval begin="180.00" end="240.00" id="mainline_up_1_2" sampledSeconds="1146.33" nVehEntered="41" nVehLeft="44" nVehSeen="60" meanSpeed="18.96" meanTimeLoss="0.66" meanOccupancy="11.91" maxOccupancy="13.82" meanMaxJamLengthInVehicles="0.00" meanMaxJamLengthInMeters="0.00" maxJamLengthInVehicles="0" maxJamLengthInMeters="0.00" jamLengthInVehiclesSum="0" jamLengthInMetersSum="0.00" meanHaltingDuration="0.00" maxHaltingDuration="0.00" haltingDurationSum="0.00" meanIntervalHaltingDuration="0.00" maxIntervalHaltingDuration="0.00" intervalHaltingDurationSum="0.00" startedHalts="0.00" meanVehicleNumber="19.60" maxVehicleNumber="22" />
   <interval begin="180.00" end="240.00" id="mainline_up_2_2" sampledSeconds="1197.06" nVehEntered="28" nVehLeft="36" nVehSeen="51" meanSpeed="19.21" meanTimeLoss="0.64" meanOccupancy="12.46" maxOccupancy="15.87" meanMaxJamLengthInVehicles="0.00" meanMaxJamLengthInMeters="0.00" maxJamLengthInVehicles="0" maxJamLengthInMeters="0.00" jamLengthInVehiclesSum="0" jamLengthInMetersSum="0.00" meanHaltingDuration="0.00" maxHaltingDuration="0.00" haltingDurationSum="0.00" meanIntervalHaltingDuration="0.00" maxIntervalHaltingDuration="0.00" intervalHaltingDurationSum="0.00" startedHalts="0.00" meanVehicleNumber="20.42" maxVehicleNumber="26" />
   <interval begin="240.00" end="300.00" id="mainline_up_0_2" sampledSeconds="933.82" nVehEntered="28" nVehLeft="22" nVehSeen="39" meanSpeed="16.87" meanTimeLoss="2.12" meanOccupancy="9.73" maxOccupancy="12.01" meanMaxJamLengthInVehicles="0.00" meanMaxJamLengthInMeters="0.00" maxJamLengthInVehicles="0" maxJamLengthInMeters="0.00" jamLengthInVehiclesSum="0" jamLengthInMetersSum="0.00" meanHaltingDuration="0.00" maxHaltingDuration="0.00" haltingDurationSum="0.00" meanIntervalHaltingDuration="0.00" maxIntervalHaltingDuration="0.00" intervalHaltingDurationSum="0.00" startedHalts="0.00" meanVehicleNumber="15.85" maxVehicleNumber="20" />
   <interval begin="240.00" end="300.00" id="mainline_up_1_2" sampledSeconds="1244.42" nVehEntered="40" nVehLeft="40" nVehSeen="56" meanSpeed="18.66" meanTimeLoss="1.02" meanOccupancy="12.94" maxOccupancy="15.08" meanMaxJamLengthInVehicles="0.00" meanMaxJamLengthInMeters="0.00" maxJamLengthInVehicles="0" maxJamLengthInMeters="0.00" jamLengthInVehiclesSum="0" jamLengthInMetersSum="0.00" meanHaltingDuration="0.00" maxHaltingDuration="0.00" haltingDurationSum="0.00" meanIntervalHaltingDuration="0.00" maxIntervalHaltingDuration="0.00" intervalHaltingDurationSum="0.00" startedHalts="0.00" meanVehicleNumber="21.20" maxVehicleNumber="25" />
   <interval begin="240.00" end="300.00" id="mainline_up_2_2" sampledSeconds="1159.23" nVehEntered="33" nVehLeft="31" nVehSeen="48" meanSpeed="19.06" meanTimeLoss="0.83" meanOccupancy="12.05" maxOccupancy="15.08" meanMaxJamLengthInVehicles="0.00" meanMaxJamLengthInMeters="0.00" maxJamLengthInVehicles="0" maxJamLengthInMeters="0.00" jamLengthInVehiclesSum="0" jamLengthInMetersSum="0.00" meanHaltingDuration="0.00" maxHaltingDuration="0.00" haltingDurationSum="0.00" meanIntervalHaltingDuration="0.00" maxIntervalHaltingDuration="0.00" intervalHaltingDurationSum="0.00" startedHalts="0.00" meanVehicleNumber="19.82" maxVehicleNumber="25" />
   <interval begin="300.00" end="360.00" id="mainline_up_0_2" sampledSeconds="1016.59" nVehEntered="35" nVehLeft="33" nVehSeen="52" meanSpeed="16.24" meanTimeLoss="1.61" meanOccupancy="10.54" maxOccupancy="11.93" meanMaxJamLengthInVehicles="0.00" meanMaxJamLengthInMeters="0.00" maxJamLengthInVehicles="0" maxJamLengthInMeters="0.00" jamLengthInVehiclesSum="0" jamLengthInMetersSum="0.00" meanHaltingDuration="0.00" maxHaltingDuration="0.00" haltingDurationSum="0.00" meanIntervalHaltingDuration="0.00" maxIntervalHaltingDuration="0.00" intervalHaltingDurationSum="0.00" startedHalts="0.00" meanVehicleNumber="17.32" maxVehicleNumber="20" />
   <interval begin="300.00" end="360.00" id="mainline_up_1_2" sampledSeconds="1146.93" nVehEntered="43" nVehLeft="39" nVehSeen="59" meanSpeed="17.57" meanTimeLoss="0.86" meanOccupancy="11.96" maxOccupancy="14.45" meanMaxJamLengthInVehicles="0.00" meanMaxJamLengthInMeters="0.00" maxJamLengthInVehicles="0" maxJamLengthInMeters="0.00" jamLengthInVehiclesSum="0" jamLengthInMetersSum="0.00" meanHaltingDuration="0.00" maxHaltingDuration="0.00" haltingDurationSum="0.00" meanIntervalHaltingDuration="0.00" maxIntervalHaltingDuration="0.00" intervalHaltingDurationSum="0.00" startedHalts="0.00" meanVehicleNumber="19.47" maxVehicleNumber="23" />
   <interval begin="300.00" end="360.00" id="mainline_up_2_2" sampledSeconds="1239.34" nVehEntered="37" nVehLeft="32" nVehSeen="54" meanSpeed="17.63" meanTimeLoss="0.94" meanOccupancy="12.97" maxOccupancy="15.70" meanMaxJamLengthInVehicles="0.00" meanMaxJamLengthInMeters="0.00" maxJamLengthInVehicles="0" maxJamLengthInMeters="0.00" jamLengthInVehiclesSum="0" jamLengthInMetersSum="0.00" meanHaltingDuration="0.00" maxHaltingDuration="0.00" haltingDurationSum="0.00" meanIntervalHaltingDuration="0.00" maxIntervalHaltingDuration="0.00" intervalHaltingDurationSum="0.00" startedHalts="0.00" meanVehicleNumber="21.08" maxVehicleNumber="25" />
   <interval begin="360.00" end="420.00" id="mainline_up_0_2" sampledSeconds="1476.95" nVehEntered="32" nVehLeft="27" nVehSeen="51" meanSpeed="13.85" meanTimeLoss="2.39" meanOccupancy="15.35" maxOccupancy="17.59" meanMaxJamLengthInVehicles="0.00" meanMaxJamLengthInMeters="0.00" maxJamLengthInVehicles="0" maxJamLengthInMeters="0.00" jamLengthInVehiclesSum="0" jamLengthInMetersSum="0.00" meanHaltingDuration="0.00" maxHaltingDuration="0.00" haltingDurationSum="0.00" meanIntervalHaltingDuration="0.00" maxIntervalHaltingDuration="0.00" intervalHaltingDurationSum="0.00" startedHalts="0.00" meanVehicleNumber="25.00" maxVehicleNumber="28" />
   <interval begin="360.00" end="420.00" id="mainline_up_1_2" sampledSeconds="1437.43" nVehEntered="44" nVehLeft="39" nVehSeen="64" meanSpeed="14.24" meanTimeLoss="1.54" meanOccupancy="14.94" maxOccupancy="16.96" meanMaxJamLengthInVehicles="0.00" meanMaxJamLengthInMeters="0.00" maxJamLengthInVehicles="0" maxJamLengthInMeters="0.00" jamLengthInVehiclesSum="0" jamLengthInMetersSum="0.00" meanHaltingDuration="0.00" maxHaltingDuration="0.00" haltingDurationSum="0.00" meanIntervalHaltingDuration="0.00" maxIntervalHaltingDuration="0.00" intervalHaltingDurationSum="0.00" startedHalts="0.00" meanVehicleNumber="24.33" maxVehicleNumber="28" />
   <interval begin="360.00" end="420.00" id="mainline_up_2_2" sampledSeconds="1302.01" nVehEntered="38" nVehLeft="31" nVehSeen="60" meanSpeed="14.17" meanTimeLoss="2.17" meanOccupancy="13.64" maxOccupancy="17.95" meanMaxJamLengthInVehicles="0.00" meanMaxJamLengthInMeters="0.00" maxJamLengthInVehicles="0" maxJamLengthInMeters="0.00" jamLengthInVehiclesSum="0" jamLengthInMetersSum="0.00" meanHaltingDuration="0.00" maxHaltingDuration="0.00" haltingDurationSum="0.00" meanIntervalHaltingDuration="0.00" maxIntervalHaltingDuration="0.00" intervalHaltingDurationSum="0.00" startedHalts="0.00" meanVehicleNumber="22.17" maxVehicleNumber="29" />
   <interval begin="420.00" end="480.00" id="mainline_up_0_2" sampledSeconds="1514.80" nVehEntered="33" nVehLeft="31" nVehSeen="57" meanSpeed="11.86" meanTimeLoss="4.41" meanOccupancy="15.72" maxOccupancy="18.22" meanMaxJamLengthInVehicles="0.77" meanMaxJamLengthInMeters="5.24" maxJamLengthInVehicles="4" maxJamLengthInMeters="29.98" jamLengthInVehiclesSum="46" jamLengthInMetersSum="314.19" meanHaltingDuration="3.86" maxHaltingDuration="6.00" haltingDurationSum="54.00" meanIntervalHaltingDuration="3.86" maxIntervalHaltingDuration="6.00" intervalHaltingDurationSum="54.00" startedHalts="16.00" meanVehicleNumber="25.58" maxVehicleNumber="29" />
   <interval begin="420.00" end="480.00" id="mainline_up_1_2" sampledSeconds="1568.93" nVehEntered="53" nVehLeft="50" nVehSeen="78" meanSpeed="13.47" meanTimeLoss="1.27" meanOccupancy="16.30" maxOccupancy="18.22" meanMaxJamLengthInVehicles="0.00" meanMaxJamLengthInMeters="0.00" maxJamLengthInVehicles="0" maxJamLengthInMeters="0.00" jamLengthInVehiclesSum="0" jamLengthInMetersSum="0.00" meanHaltingDuration="0.00" maxHaltingDuration="0.00" haltingDurationSum="0.00" meanIntervalHaltingDuration="0.00" maxIntervalHaltingDuration="0.00" intervalHaltingDurationSum="0.00" startedHalts="0.00" meanVehicleNumber="26.55" maxVehicleNumber="29" />
   <interval begin="420.00" end="480.00" id="mainline_up_2_2" sampledSeconds="1546.59" nVehEntered="38" nVehLeft="37" nVehSeen="67" meanSpeed="13.65" meanTimeLoss="1.46" meanOccupancy="16.11" maxOccupancy="19.47" meanMaxJamLengthInVehicles="0.00" meanMaxJamLengthInMeters="0.00" maxJamLengthInVehicles="0" maxJamLengthInMeters="0.00" jamLengthInVehiclesSum="0" jamLengthInMetersSum="0.00" meanHaltingDuration="0.00" maxHaltingDuration="0.00" haltingDurationSum="0.00" meanIntervalHaltingDuration="0.00" maxIntervalHaltingDuration="0.00" intervalHaltingDurationSum="0.00" startedHalts="0.00" meanVehicleNumber="26.25" maxVehicleNumber="32" />
   <interval begin="480.00" end="540.00" id="mainline_up_0_2" sampledSeconds="1464.58" nVehEntered="25" nVehLeft="27" nVehSeen="51" meanSpeed="12.95" meanTimeLoss="1.71" meanOccupancy="15.18" maxOccupancy="16.40" meanMaxJamLengthInVehicles="0.00" meanMaxJamLengthInMeters="0.00" maxJamLengthInVehicles="0" maxJamLengthInMeters="0.00" jamLengthInVehiclesSum="0" jamLengthInMetersSum="0.00" meanHaltingDuration="0.00" maxHaltingDuration="0.00" haltingDurationSum="0.00" meanIntervalHaltingDuration="0.00" maxIntervalHaltingDuration="0.00" intervalHaltingDurationSum="0.00" startedHalts="0.00" meanVehicleNumber="24.73" maxVehicleNumber="27" />
   <interval begin="480.00" end="540.00" id="mainline_up_1_2" sampledSeconds="1624.67" nVehEntered="37" nVehLeft="41" nVehSeen="65" meanSpeed="13.16" meanTimeLoss="1.45" meanOccupancy="16.91" maxOccupancy="18.28" meanMaxJamLengthInVehicles="0.00" meanMaxJamLengthInMeters="0.00" maxJamLengthInVehicles="0" maxJamLengthInMeters="0.00" jamLengthInVehiclesSum="0" jamLengthInMetersSum="0.00" meanHaltingDuration="0.00" maxHaltingDuration="0.00" haltingDurationSum="0.00" meanIntervalHaltingDuration="0.00" maxIntervalHaltingDuration="0.00" intervalHaltingDurationSum="0.00" startedHalts="0.00" meanVehicleNumber="27.53" maxVehicleNumber="30" />
   <interval begin="480.00" end="540.00" id="mainline_up_2_2" sampledSeconds="1838.79" nVehEntered="34" nVehLeft="36" nVehSeen="64" meanSpeed="13.12" meanTimeLoss="1.73" meanOccupancy="19.16" maxOccupancy="21.36" meanMaxJamLengthInVehicles="0.00" meanMaxJamLengthInMeters="0.00" maxJamLengthInVehicles="0" maxJamLengthInMeters="0.00" jamLengthInVehiclesSum="0" jamLengthInMetersSum="0.00" meanHaltingDuration="0.00" maxHaltingDuration="0.00" haltingDurationSum="0.00" meanIntervalHaltingDuration="0.00" maxIntervalHaltingDuration="0.00" intervalHaltingDurationSum="0.00" startedHalts="0.00" meanVehicleNumber="31.12" maxVehicleNumber="34" />
   <interval begin="540.00" end="600.00" id="mainline_up_0_2" sampledSeconds="1412.92" nVehEntered="28" nVehLeft="32" nVehSeen="52" meanSpeed="13.50" meanTimeLoss="2.61" meanOccupancy="14.64" maxOccupancy="16.96" meanMaxJamLengthInVehicles="0.00" meanMaxJamLengthInMeters="0.00" maxJamLengthInVehicles="0" maxJamLengthInMeters="0.00" jamLengthInVehiclesSum="0" jamLengthInMetersSum="0.00" meanHaltingDuration="0.00" maxHaltingDuration="0.00" haltingDurationSum="0.00" meanIntervalHaltingDuration="0.00" maxIntervalHaltingDuration="0.00" intervalHaltingDurationSum="0.00" startedHalts="0.00" meanVehicleNumber="23.88" maxVehicleNumber="27" />
   <interval begin="540.00" end="600.00" id="mainline_up_1_2" sampledSeconds="1584.09" nVehEntered="43" nVehLeft="37" nVehSeen="67" meanSpeed="13.66" meanTimeLoss="2.77" meanOccupancy="16.49" maxOccupancy="19.47" meanMaxJamLengthInVehicles="0.00" meanMaxJamLengthInMeters="0.00" maxJamLengthInVehicles="0" maxJamLengthInMeters="0.00" jamLengthInVehiclesSum="0" jamLengthInMetersSum="0.00" meanHaltingDuration="0.00" maxHaltingDuration="0.00" haltingDurationSum="0.00" meanIntervalHaltingDuration="0.00" maxIntervalHaltingDuration="0.00" intervalHaltingDurationSum="0.00" startedHalts="0.00" meanVehicleNumber="26.83" maxVehicleNumber="32" />
   <interval begin="540.00" end="600.00" id="mainline_up_2_2" sampledSeconds="1670.38" nVehEntered="36" nVehLeft="34" nVehSeen="64" meanSpeed="13.72" meanTimeLoss="3.03" meanOccupancy="17.40" maxOccupancy="18.84" meanMaxJamLengthInVehicles="0.00" meanMaxJamLengthInMeters="0.00" maxJamLengthInVehicles="0" maxJamLengthInMeters="0.00" jamLengthInVehiclesSum="0" jamLengthInMetersSum="0.00" meanHaltingDuration="0.00" maxHaltingDuration="0.00" haltingDurationSum="0.00" meanIntervalHaltingDuration="0.00" maxIntervalHaltingDuration="0.00" intervalHaltingDurationSum="0.00" startedHalts="0.00" meanVehicleNumber="28.42" maxVehicleNumber="31" />
   <interval begin="600.00" end="660.00" id="mainline_up_0_2" sampledSeconds="1186.13" nVehEntered="25" nVehLeft="27" nVehSeen="45" meanSpeed="14.57" meanTimeLoss="4.08" meanOccupancy="12.25" maxOccupancy="13.82" meanMaxJamLengthInVehicles="0.00" meanMaxJamLengthInMeters="0.00" maxJamLengthInVehicles="0" maxJamLengthInMeters="0.00" jamLengthInVehiclesSum="0" jamLengthInMetersSum="0.00" meanHaltingDuration="0.00" maxHaltingDuration="0.00" haltingDurationSum="0.00" meanIntervalHaltingDuration="0.00" maxIntervalHaltingDuration="0.00" intervalHaltingDurationSum="0.00" startedHalts="0.00" meanVehicleNumber="20.07" maxVehicleNumber="23" />
   <interval begin="600.00" end="660.00" id="mainline_up_1_2" sampledSeconds="1579.28" nVehEntered="41" nVehLeft="46" nVehSeen="71" meanSpeed="15.70" meanTimeLoss="2.29" meanOccupancy="16.37" maxOccupancy="18.84" meanMaxJamLengthInVehicles="0.00" meanMaxJamLengthInMeters="0.00" maxJamLengthInVehicles="0" maxJamLengthInMeters="0.00" jamLengthInVehiclesSum="0" jamLengthInMetersSum="0.00" meanHaltingDuration="0.00" maxHaltingDuration="0.00" haltingDurationSum="0.00" meanIntervalHaltingDuration="0.00" maxIntervalHaltingDuration="0.00" intervalHaltingDurationSum="0.00" startedHalts="0.00" meanVehicleNumber="26.83" maxVehicleNumber="30" />
   <interval begin="600.00" end="660.00" id="mainline_up_2_2" sampledSeconds="1632.11" nVehEntered="36" nVehLeft="43" nVehSeen="66" meanSpeed="16.51" meanTimeLoss="1.45" meanOccupancy="16.97" maxOccupancy="19.47" meanMaxJamLengthInVehicles="0.00" meanMaxJamLengthInMeters="0.00" maxJamLengthInVehicles="0" maxJamLengthInMeters="0.00" jamLengthInVehiclesSum="0" jamLengthInMetersSum="0.00" meanHaltingDuration="0.00" maxHaltingDuration="0.00" haltingDurationSum="0.00" meanIntervalHaltingDuration="0.00" maxIntervalHaltingDuration="0.00" intervalHaltingDurationSum="0.00" startedHalts="0.00" meanVehicleNumber="27.83" maxVehicleNumber="31" />
   <interval begin="660.00" end="720.00" id="mainline_up_0_2" sampledSeconds="1147.34" nVehEntered="32" nVehLeft="31" nVehSeen="50" meanSpeed="15.98" meanTimeLoss="1.69" meanOccupancy="11.89" maxOccupancy="12.86" meanMaxJamLengthInVehicles="0.12" meanMaxJamLengthInMeters="0.71" maxJamLengthInVehicles="2" maxJamLengthInMeters="13.90" jamLengthInVehiclesSum="7" jamLengthInMetersSum="42.56" meanHaltingDuration="3.33" maxHaltingDuration="5.00" haltingDurationSum="10.00" meanIntervalHaltingDuration="3.33" maxIntervalHaltingDuration="5.00" intervalHaltingDurationSum="10.00" startedHalts="3.00" meanVehicleNumber="19.43" maxVehicleNumber="21" />
   <interval begin="660.00" end="720.00" id="mainline_up_1_2" sampledSeconds="1405.88" nVehEntered="42" nVehLeft="46" nVehSeen="67" meanSpeed="16.48" meanTimeLoss="1.33" meanOccupancy="14.58" maxOccupancy="15.70" meanMaxJamLengthInVehicles="0.00" meanMaxJamLengthInMeters="0.00" maxJamLengthInVehicles="0" maxJamLengthInMeters="0.00" jamLengthInVehiclesSum="0" jamLengthInMetersSum="0.00" meanHaltingDuration="0.00" maxHaltingDuration="0.00" haltingDurationSum="0.00" meanIntervalHaltingDuration="0.00" maxIntervalHaltingDuration="0.00" intervalHaltingDurationSum="0.00" startedHalts="0.00" meanVehicleNumber="23.85" maxVehicleNumber="26" />
   <interval begin="660.00" end="720.00" id="mainline_up_2_2" sampledSeconds="1358.51" nVehEntered="32" nVehLeft="35" nVehSeen="55" meanSpeed="16.75" meanTimeLoss="1.25" meanOccupancy="14.17" maxOccupancy="16.33" meanMaxJamLengthInVehicles="0.00" meanMaxJamLengthInMeters="0.00" maxJamLengthInVehicles="0" maxJamLengthInMeters="0.00" jamLengthInVehiclesSum="0" jamLengthInMetersSum="0.00" meanHaltingDuration="0.00" maxHaltingDuration="0.00" haltingDurationSum="0.00" meanIntervalHaltingDuration="0.00" maxIntervalHaltingDuration="0.00" intervalHaltingDurationSum="0.00" startedHalts="0.00" meanVehicleNumber="23.15" maxVehicleNumber="26" />
   <interval begin="720.00" end="780.00" id="mainline_up_0_2" sampledSeconds="1342.52" nVehEntered="32" nVehLeft="25" nVehSeen="51" meanSpeed="12.85" meanTimeLoss="2.59" meanOccupancy="13.93" maxOccupancy="16.96" meanMaxJamLengthInVehicles="0.05" meanMaxJamLengthInMeters="0.31" maxJamLengthInVehicles="2" maxJamLengthInMeters="13.62" jamLengthInVehiclesSum="3" jamLengthInMetersSum="18.62" meanHaltingDuration="2.43" maxHaltingDuration="5.00" haltingDurationSum="17.00" meanIntervalHaltingDuration="1.00" maxIntervalHaltingDuration="2.00" intervalHaltingDurationSum="7.00" startedHalts="5.00" meanVehicleNumber="22.73" maxVehicleNumber="27" />
   <interval begin="720.00" end="780.00" id="mainline_up_1_2" sampledSeconds="1341.25" nVehEntered="42" nVehLeft="36" nVehSeen="63" meanSpeed="13.47" meanTimeLoss="1.54" meanOccupancy="13.97" maxOccupancy="16.94" meanMaxJamLengthInVehicles="0.00" meanMaxJamLengthInMeters="0.00" maxJamLengthInVehicles="0" maxJamLengthInMeters="0.00" jamLengthInVehiclesSum="0" jamLengthInMetersSum="0.00" meanHaltingDuration="0.00" maxHaltingDuration="0.00" haltingDurationSum="0.00" meanIntervalHaltingDuration="0.00" maxIntervalHaltingDuration="0.00" intervalHaltingDurationSum="0.00" startedHalts="0.00" meanVehicleNumber="22.85" maxVehicleNumber="27" />
   <interval begin="720.00" end="780.00" id="mainline_up_2_2" sampledSeconds="1407.72" nVehEntered="36" nVehLeft="28" nVehSeen="56" meanSpeed="13.69" meanTimeLoss="1.59" meanOccupancy="14.70" maxOccupancy="18.84" meanMaxJamLengthInVehicles="0.00" meanMaxJamLengthInMeters="0.00" maxJamLengthInVehicles="0" maxJamLengthInMeters="0.00" jamLengthInVehiclesSum="0" jamLengthInMetersSum="0.00" meanHaltingDuration="0.00" maxHaltingDuration="0.00" haltingDurationSum="0.00" meanIntervalHaltingDuration="0.00" maxIntervalHaltingDuration="0.00" intervalHaltingDurationSum="0.00" startedHalts="0.00" meanVehicleNumber="23.92" maxVehicleNumber="30" />
   <interval begin="780.00" end="840.00" id="mainline_up_0_2" sampledSeconds="1588.99" nVehEntered="28" nVehLeft="24" nVehSeen="54" meanSpeed="12.10" meanTimeLoss="5.24" meanOccupancy="16.51" maxOccupancy="18.84" meanMaxJamLengthInVehicles="0.18" meanMaxJamLengthInMeters="1.28" maxJamLengthInVehicles="3" maxJamLengthInMeters="22.75" jamLengthInVehiclesSum="11" jamLengthInMetersSum="76.89" meanHaltingDuration="2.83" maxHaltingDuration="4.00" haltingDurationSum="17.00" meanIntervalHaltingDuration="2.83" maxIntervalHaltingDuration="4.00" intervalHaltingDurationSum="17.00" startedHalts="6.00" meanVehicleNumber="26.80" maxVehicleNumber="30" />
   <interval begin="780.00" end="840.00" id="mainline_up_1_2" sampledSeconds="1645.58" nVehEntered="42" nVehLeft="41" nVehSeen="69" meanSpeed="13.83" meanTimeLoss="1.47" meanOccupancy="17.08" maxOccupancy="18.85" meanMaxJamLengthInVehicles="0.00" meanMaxJamLengthInMeters="0.00" maxJamLengthInVehicles="0" maxJamLengthInMeters="0.00" jamLengthInVehiclesSum="0" jamLengthInMetersSum="0.00" meanHaltingDuration="0.00" maxHaltingDuration="0.00" haltingDurationSum="0.00" meanIntervalHaltingDuration="0.00" maxIntervalHaltingDuration="0.00" intervalHaltingDurationSum="0.00" startedHalts="0.00" meanVehicleNumber="27.92" maxVehicleNumber="31" />
   <interval begin="780.00" end="840.00" id="mainline_up_2_2" sampledSeconds="1605.58" nVehEntered="33" nVehLeft="33" nVehSeen="61" meanSpeed="13.80" meanTimeLoss="1.79" meanOccupancy="16.73" maxOccupancy="20.10" meanMaxJamLengthInVehicles="0.00" meanMaxJamLengthInMeters="0.00" maxJamLengthInVehicles="0" maxJamLengthInMeters="0.00" jamLengthInVehiclesSum="0" jamLengthInMetersSum="0.00" meanHaltingDuration="0.00" maxHaltingDuration="0.00" haltingDurationSum="0.00" meanIntervalHaltingDuration="0.00" maxIntervalHaltingDuration="0.00" intervalHaltingDurationSum="0.00" startedHalts="0.00" meanVehicleNumber="27.23" maxVehicleNumber="33" />
   <interval begin="840.00" end="900.00" id="mainline_up_0_2" sampledSeconds="1602.71" nVehEntered="25" nVehLeft="28" nVehSeen="55" meanSpeed="11.78" meanTimeLoss="5.01" meanOccupancy="16.59" maxOccupancy="19.32" meanMaxJamLengthInVehicles="0.90" meanMaxJamLengthInMeters="5.53" maxJamLengthInVehicles="3" maxJamLengthInMeters="22.89" jamLengthInVehiclesSum="58" jamLengthInMetersSum="351.65" meanHaltingDuration="2.72" maxHaltingDuration="5.00" haltingDurationSum="87.00" meanIntervalHaltingDuration="2.47" maxIntervalHaltingDuration="5.00" intervalHaltingDurationSum="79.00" startedHalts="31.00" meanVehicleNumber="27.02" maxVehicleNumber="32" />
   <interval begin="840.00" end="900.00" id="mainline_up_1_2" sampledSeconds="1645.10" nVehEntered="40" nVehLeft="38" nVehSeen="68" meanSpeed="12.90" meanTimeLoss="2.43" meanOccupancy="17.08" maxOccupancy="19.25" meanMaxJamLengthInVehicles="0.00" meanMaxJamLengthInMeters="0.00" maxJamLengthInVehicles="0" maxJamLengthInMeters="0.00" jamLengthInVehiclesSum="0" jamLengthInMetersSum="0.00" meanHaltingDuration="0.00" maxHaltingDuration="0.00" haltingDurationSum="0.00" meanIntervalHaltingDuration="0.00" maxIntervalHaltingDuration="0.00" intervalHaltingDurationSum="0.00" startedHalts="0.00" meanVehicleNumber="27.82" maxVehicleNumber="31" />
   <interval begin="840.00" end="900.00" id="mainline_up_2_2" sampledSeconds="1752.82" nVehEntered="35" nVehLeft="36" nVehSeen="63" meanSpeed="13.52" meanTimeLoss="1.70" meanOccupancy="18.24" maxOccupancy="20.10" meanMaxJamLengthInVehicles="0.00" meanMaxJamLengthInMeters="0.00" maxJamLengthInVehicles="0" maxJamLengthInMeters="0.00" jamLengthInVehiclesSum="0" jamLengthInMetersSum="0.00" meanHaltingDuration="0.00" maxHaltingDuration="0.00" haltingDurationSum="0.00" meanIntervalHaltingDuration="0.00" maxIntervalHaltingDuration="0.00" intervalHaltingDurationSum="0.00" startedHalts="0.00" meanVehicleNumber="29.72" maxVehicleNumber="33" />