<?xml version="1.0" encoding="UTF-8"?>

<!-- generated on 03/01/19 23:03:18 by Eclipse SUMO Version 1.0.1
<configuration xmlns:xsi="http://www.w3.org/2001/XMLSchema-instance" xsi:noNamespaceSchemaLocation="http://sumo.dlr.de/xsd/sumoConfiguration.xsd">

    <input>
        <net-file value="./project/ramp.net.xml"/>
        <route-files value="./project/ramp.rou.xml"/>
        <additional-files value="./project/ramp.add.xml"/>
    </input>

    <time>
        <begin value="0"/>
    </time>

    <report>
        <verbose value="true"/>
        <no-step-log value="true"/>
    </report>

    <traci_server>
        <remote-port value="18726"/>
    </traci_server>

    <random_number>
        <seed value="171495192"/>
    </random_number>

    <gui_only>
        <quit-on-end value="true"/>
        <start value="true"/>
    </gui_only>

</configuration>
-->

<detector xmlns:xsi="http://www.w3.org/2001/XMLSchema-instance" xsi:noNamespaceSchemaLocation="http://sumo.dlr.de/xsd/det_e2_file.xsd">
   <interval begin="0.00" end="60.00" id="mainline_up_0_2" sampledSeconds="0.00" nVehEntered="0" nVehLeft="0" nVehSeen="0" meanSpeed="-1.00" meanTimeLoss="-1.00" meanOccupancy="0.00" maxOccupancy="0.00" meanMaxJamLengthInVehicles="0.00" meanMaxJamLengthInMeters="0.00" maxJamLengthInVehicles="0" maxJamLengthInMeters="0.00" jamLengthInVehiclesSum="0" jamLengthInMetersSum="0.00" meanHaltingDuration="0.00" maxHaltingDuration="0.00" haltingDurationSum="0.00" meanIntervalHaltingDuration="0.00" maxIntervalHaltingDuration="0.00" intervalHaltingDurationSum="0.00" startedHalts="0.00" meanVehicleNumber="0.00" maxVehicleNumber="0" />
   <interval begin="0.00" end="60.00" id="mainline_up_1_2" sampledSeconds="0.00" nVehEntered="0" nVehLeft="0" nVehSeen="0" meanSpeed="-1.00" meanTimeLoss="-1.00" meanOccupancy="0.00" maxOccupancy="0.00" meanMaxJamLengthInVehicles="0.00" meanMaxJamLengthInMeters="0.00" maxJamLengthInVehicles="0" maxJamLengthInMeters="0.00" jamLengthInVehiclesSum="0" jamLengthInMetersSum="0.00" meanHaltingDuration="0.00" maxHaltingDuration="0.00" haltingDurationSum="0.00" meanIntervalHaltingDuration="0.00" maxIntervalHaltingDuration="0.00" intervalHaltingDurationSum="0.00" startedHalts="0.00" meanVehicleNumber="0.00" maxVehicleNumber="0" />
   <interval begin="0.00" end="60.00" id="mainline_up_2_2" sampledSeconds="0.00" nVehEntered="0" nVehLeft="0" nVehSeen="0" meanSpeed="-1.00" meanTimeLoss="-1.00" meanOccupancy="0.00" maxOccupancy="0.00" meanMaxJamLengthInVehicles="0.00" meanMaxJamLengthInMeters="0.00" maxJamLengthInVehicles="0" maxJamLengthInMeters="0.00" jamLengthInVehiclesSum="0" jamLengthInMetersSum="0.00" meanHaltingDuration="0.00" maxHaltingDuration="0.00" haltingDurationSum="0.00" meanIntervalHaltingDuration="0.00" maxIntervalHaltingDuration="0.00" intervalHaltingDurationSum="0.00" startedHalts="0.00" meanVehicleNumber="0.00" maxVehicleNumber="0" />
   <interval begin="60.00" end="120.00" id="mainline_up_0_2" sampledSeconds="317.55" nVehEntered="16" nVehLeft="3" nVehSeen="16" meanSpeed="16.05" meanTimeLoss="0.55" meanOccupancy="3.35" maxOccupancy="8.17" meanMaxJamLengthInVehicles="0.00" meanMaxJamLengthInMeters="0.00" maxJamLengthInVehicles="0" maxJamLengthInMeters="0.00" jamLengthInVehiclesSum="0" jamLengthInMetersSum="0.00" meanHaltingDuration="0.00" maxHaltingDuration="0.00" haltingDurationSum="0.00" meanIntervalHaltingDuration="0.00" maxIntervalHaltingDuration="0.00" intervalHaltingDurationSum="0.00" startedHalts="0.00" meanVehicleNumber="5.40" maxVehicleNumber="14" />
   <interval begin="60.00" end="120.00" id="mainline_up_1_2" sampledSeconds="291.32" nVehEntered="23" nVehLeft="6" nVehSeen="23" meanSpeed="15.75" meanTimeLoss="0.55" meanOccupancy="3.10" maxOccupancy="10.68" meanMaxJamLengthInVehicles="0.00" meanMaxJamLengthInMeters="0.00" maxJamLengthInVehicles="0" maxJamLengthInMeters="0.00" jamLengthInVehiclesSum="0" jamLengthInMetersSum="0.00" meanHaltingDuration="0.00" maxHaltingDuration="0.00" haltingDurationSum="0.00" meanIntervalHaltingDuration="0.00" maxIntervalHaltingDuration="0.00" intervalHaltingDurationSum="0.00" startedHalts="0.00" meanVehicleNumber="4.95" maxVehicleNumber="17" />
   <interval begin="60.00" end="120.00" id="mainline_up_2_2" sampledSeconds="251.07" nVehEntered="18" nVehLeft="9" nVehSeen="18" meanSpeed="16.59" meanTimeLoss="0.68" meanOccupancy="2.70" maxOccupancy="6.91" meanMaxJamLengthInVehicles="0.00" meanMaxJamLengthInMeters="0.00" maxJamLengthInVehicles="0" maxJamLengthInMeters="0.00" jamLengthInVehiclesSum="0" jamLengthInMetersSum="0.00" meanHaltingDuration="0.00" maxHaltingDuration="0.00" haltingDurationSum="0.00" meanIntervalHaltingDuration="0.00" maxIntervalHaltingDuration="0.00" intervalHaltingDurationSum="0.00" startedHalts="0.00" meanVehicleNumber="4.33" maxVehicleNumber="11" />
   <interval begin="120.00" end="180.00" id="mainline_up_0_2" sampledSeconds="1281.31" nVehEntered="31" nVehLeft="19" nVehSeen="44" meanSpeed="12.16" meanTimeLoss="1.65" meanOccupancy="13.35" maxOccupancy="16.96" meanMaxJamLengthInVehicles="0.00" meanMaxJamLengthInMeters="0.00" maxJamLengthInVehicles="0" maxJamLengthInMeters="0.00" jamLengthInVehiclesSum="0" jamLengthInMetersSum="0.00" meanHaltingDuration="0.00" maxHaltingDuration="0.00" haltingDurationSum="0.00" meanIntervalHaltingDuration="0.00" maxIntervalHaltingDuration="0.00" intervalHaltingDurationSum="0.00" startedHalts="0.00" meanVehicleNumber="21.60" maxVehicleNumber="27" />
   <interval begin="120.00" end="180.00" id="mainline_up_1_2" sampledSeconds="1323.43" nVehEntered="42" nVehLeft="32" nVehSeen="59" meanSpeed="12.03" meanTimeLoss="1.70" meanOccupancy="13.85" maxOccupancy="16.96" meanMaxJamLengthInVehicles="0.00" meanMaxJamLengthInMeters="0.00" maxJamLengthInVehicles="0" maxJamLengthInMeters="0.00" jamLengthInVehiclesSum="0" jamLengthInMetersSum="0.00" meanHaltingDuration="0.00" maxHaltingDuration="0.00" haltingDurationSum="0.00" meanIntervalHaltingDuration="0.00" maxIntervalHaltingDuration="0.00" intervalHaltingDurationSum="0.00" startedHalts="0.00" meanVehicleNumber="22.35" maxVehicleNumber="27" />
   <interval begin="120.00" end="180.00" id="mainline_up_2_2" sampledSeconds="1165.31" nVehEntered="33" nVehLeft="16" nVehSeen="42" meanSpeed="11.77" meanTimeLoss="2.95" meanOccupancy="12.29" maxOccupancy="17.59" meanMaxJamLengthInVehicles="0.00" meanMaxJamLengthInMeters="0.00" maxJamLengthInVehicles="0" maxJamLengthInMeters="0.00" jamLengthInVehiclesSum="0" jamLengthInMetersSum="0.00" meanHaltingDuration="0.00" maxHaltingDuration="0.00" haltingDurationSum="0.00" meanIntervalHaltingDuration="0.00" maxIntervalHaltingDuration="0.00" intervalHaltingDurationSum="0.00" startedHalts="0.00" meanVehicleNumber="19.70" maxVehicleNumber="28" />
   <interval begin="180.00" end="240.00" id="mainline_up_0_2" sampledSeconds="1459.00" nVehEntered="25" nVehLeft="30" nVehSeen="50" meanSpeed="12.80" meanTimeLoss="3.55" meanOccupancy="15.09" maxOccupancy="17.59" meanMaxJamLengthInVehicles="0.00" meanMaxJamLengthInMeters="0.00" maxJamLengthInVehicles="0" maxJamLengthInMeters="0.00" jamLengthInVehiclesSum="0" jamLengthInMetersSum="0.00" meanHaltingDuration="0.00" maxHaltingDuration="0.00" haltingDurationSum="0.00" meanIntervalHaltingDuration="0.00" maxIntervalHaltingDuration="0.00" intervalHaltingDurationSum="0.00" startedHalts="0.00" meanVehicleNumber="24.67" maxVehicleNumber="28" />
   <interval begin="180.00" end="240.00" id="mainline_up_1_2" sampledSeconds="1526.57" nVehEntered="39" nVehLeft="46" nVehSeen="66" meanSpeed="13.81" meanTimeLoss="1.91" meanOccupancy="15.85" maxOccupancy="17.44" meanMaxJamLengthInVehicles="0.00" meanMaxJamLengthInMeters="0.00" maxJamLengthInVehicles="0" maxJamLengthInMeters="0.00" jamLengthInVehiclesSum="0" jamLengthInMetersSum="0.00" meanHaltingDuration="0.00" maxHaltingDuration="0.00" haltingDurationSum="0.00" meanIntervalHaltingDuration="0.00" maxIntervalHaltingDuration="0.00" intervalHaltingDurationSum="0.00" startedHalts="0.00" meanVehicleNumber="25.95" maxVehicleNumber="28" />
   <interval begin="180.00" end="240.00" id="mainline_up_2_2" sampledSeconds="1586.13" nVehEntered="34" nVehLeft="31" nVehSeen="60" meanSpeed="13.89" meanTimeLoss="2.49" meanOccupancy="16.54" maxOccupancy="18.22" meanMaxJamLengthInVehicles="0.00" meanMaxJamLengthInMeters="0.00" maxJamLengthInVehicles="0" maxJamLengthInMeters="0.00" jamLengthInVehiclesSum="0" jamLengthInMetersSum="0.00" meanHaltingDuration="0.00" maxHaltingDuration="0.00" haltingDurationSum="0.00" meanIntervalHaltingDuration="0.00" maxIntervalHaltingDuration="0.00" intervalHaltingDurationSum="0.00" startedHalts="0.00" meanVehicleNumber="26.85" maxVehicleNumber="30" />
   <interval begin="240.00" end="300.00" id="mainline_up_0_2" sampledSeconds="1472.52" nVehEntered="30" nVehLeft="29" nVehSeen="50" meanSpeed="12.68" meanTimeLoss="3.51" meanOccupancy="15.27" maxOccupancy="16.96" meanMaxJamLengthInVehicles="0.00" meanMaxJamLengthInMeters="0.00" maxJamLengthInVehicles="0" maxJamLengthInMeters="0.00" jamLengthInVehiclesSum="0" jamLengthInMetersSum="0.00" meanHaltingDuration="0.00" maxHaltingDuration="0.00" haltingDurationSum="0.00" meanIntervalHaltingDuration="0.00" maxIntervalHaltingDuration="0.00" intervalHaltingDurationSum="0.00" startedHalts="0.00" meanVehicleNumber="24.87" maxVehicleNumber="28" />
   <interval begin="240.00" end="300.00" id="mainline_up_1_2" sampledSeconds="1622.42" nVehEntered="49" nVehLeft="41" nVehSeen="69" meanSpeed="12.97" meanTimeLoss="2.68" meanOccupancy="16.89" maxOccupancy="19.47" meanMaxJamLengthInVehicles="0.00" meanMaxJamLengthInMeters="0.00" maxJamLengthInVehicles="0" maxJamLengthInMeters="0.00" jamLengthInVehiclesSum="0" jamLengthInMetersSum="0.00" meanHaltingDuration="0.00" maxHaltingDuration="0.00" haltingDurationSum="0.00" meanIntervalHaltingDuration="0.00" maxIntervalHaltingDuration="0.00" intervalHaltingDurationSum="0.00" startedHalts="0.00" meanVehicleNumber="27.45" maxVehicleNumber="31" />
   <interval begin="240.00" end="300.00" id="mainline_up_2_2" sampledSeconds="1629.33" nVehEntered="36" nVehLeft="33" nVehSeen="65" meanSpeed="12.48" meanTimeLoss="3.50" meanOccupancy="17.00" maxOccupancy="20.10" meanMaxJamLengthInVehicles="0.00" meanMaxJamLengthInMeters="0.00" maxJamLengthInVehicles="0" maxJamLengthInMeters="0.00" jamLengthInVehiclesSum="0" jamLengthInMetersSum="0.00" meanHaltingDuration="0.00" maxHaltingDuration="0.00" haltingDurationSum="0.00" meanIntervalHaltingDuration="0.00" maxIntervalHaltingDuration="0.00" intervalHaltingDurationSum="0.00" startedHalts="0.00" meanVehicleNumber="27.58" maxVehicleNumber="33" />
   <interval begin="300.00" end="360.00" id="mainline_up_0_2" sampledSeconds="1291.41" nVehEntered="32" nVehLeft="28" nVehSeen="53" meanSpeed="12.38" meanTimeLoss="3.27" meanOccupancy="13.37" maxOccupancy="16.32" meanMaxJamLengthInVehicles="0.02" meanMaxJamLengthInMeters="0.08" maxJamLengthInVehicles="1" maxJamLengthInMeters="5.00" jamLengthInVehiclesSum="1" jamLengthInMetersSum="5.00" meanHaltingDuration="1.50" maxHaltingDuration="2.00" haltingDurationSum="3.00" meanIntervalHaltingDuration="1.50" maxIntervalHaltingDuration="2.00" intervalHaltingDurationSum="3.00" startedHalts="2.00" meanVehicleNumber="21.85" maxVehicleNumber="26" />
   <interval begin="300.00" end="360.00" id="mainline_up_1_2" sampledSeconds="1596.88" nVehEntered="41" nVehLeft="44" nVehSeen="69" meanSpeed="12.65" meanTimeLoss="3.09" meanOccupancy="16.59" maxOccupancy="18.84" meanMaxJamLengthInVehicles="0.00" meanMaxJamLengthInMeters="0.00" maxJamLengthInVehicles="0" maxJamLengthInMeters="0.00" jamLengthInVehiclesSum="0" jamLengthInMetersSum="0.00" meanHaltingDuration="0.00" maxHaltingDuration="0.00" haltingDurationSum="0.00" meanIntervalHaltingDuration="0.00" maxIntervalHaltingDuration="0.00" intervalHaltingDurationSum="0.00" startedHalts="0.00" meanVehicleNumber="26.98" maxVehicleNumber="31" />
   <interval begin="300.00" end="360.00" id="mainline_up_2_2" sampledSeconds="1736.33" nVehEntered="33" nVehLeft="40" nVehSeen="65" meanSpeed="12.63" meanTimeLoss="3.80" meanOccupancy="18.09" maxOccupancy="20.73" meanMaxJamLengthInVehicles="0.00" meanMaxJamLengthInMeters="0.00" maxJamLengthInVehicles="0" maxJamLengthInMeters="0.00" jamLengthInVehiclesSum="0" jamLengthInMetersSum="0.00" meanHaltingDuration="0.00" maxHaltingDuration="0.00" haltingDurationSum="0.00" meanIntervalHaltingDuration="0.00" maxIntervalHaltingDuration="0.00" intervalHaltingDurationSum="0.00" startedHalts="0.00" meanVehicleNumber="29.47" maxVehicleNumber="34" />
   <interval begin="360.00" end="420.00" id="mainline_up_0_2" sampledSeconds="1238.28" nVehEntered="26" nVehLeft="33" nVehSeen="51" meanSpeed="15.63" meanTimeLoss="4.14" meanOccupancy="12.83" maxOccupancy="16.33" meanMaxJamLengthInVehicles="0.22" meanMaxJamLengthInMeters="1.36" maxJamLengthInVehicles="2" maxJamLengthInMeters="13.91" jamLengthInVehiclesSum="13" jamLengthInMetersSum="81.66" meanHaltingDuration="3.17" maxHaltingDuration="5.00" haltingDurationSum="19.00" meanIntervalHaltingDuration="3.17" maxIntervalHaltingDuration="5.00" intervalHaltingDurationSum="19.00" startedHalts="6.00" meanVehicleNumber="20.98" maxVehicleNumber="27" />
   <interval begin="360.00" end="420.00" id="mainline_up_1_2" sampledSeconds="1374.79" nVehEntered="38" nVehLeft="43" nVehSeen="63" meanSpeed="16.93" meanTimeLoss="2.41" meanOccupancy="14.25" maxOccupancy="17.35" meanMaxJamLengthInVehicles="0.00" meanMaxJamLengthInMeters="0.00" maxJamLengthInVehicles="0" maxJamLengthInMeters="0.00" jamLengthInVehiclesSum="0" jamLengthInMetersSum="0.00" meanHaltingDuration="0.00" maxHaltingDuration="0.00" haltingDurationSum="0.00" meanIntervalHaltingDuration="0.00" maxIntervalHaltingDuration="0.00" intervalHaltingDurationSum="0.00" startedHalts="0.00" meanVehicleNumber="23.43" maxVehicleNumber="28" />
   <interval begin="360.00" end="420.00" id="mainline_up_2_2" sampledSeconds="1511.53" nVehEntered="33" nVehLeft="36" nVehSeen="58" meanSpeed="17.45" meanTimeLoss="2.62" meanOccupancy="15.70" maxOccupancy="18.22" meanMaxJamLengthInVehicles="0.00" meanMaxJamLengthInMeters="0.00" maxJamLengthInVehicles="0" maxJamLengthInMeters="0.00" jamLengthInVehiclesSum="0" jamLengthInMetersSum="0.00" meanHaltingDuration="0.00" maxHaltingDuration="0.00" haltingDurationSum="0.00" meanIntervalHaltingDuration="0.00" maxIntervalHaltingDuration="0.00" intervalHaltingDurationSum="0.00" startedHalts="0.00" meanVehicleNumber="25.77" maxVehicleNumber="29" />
   <interval begin="420.00" end="480.00" id="mainline_up_0_2" sampledSeconds="994.50" nVehEntered="18" nVehLeft="23" nVehSeen="36" meanSpeed="17.28" meanTimeLoss="3.08" meanOccupancy="10.32" maxOccupancy="13.19" meanMaxJamLengthInVehicles="0.00" meanMaxJamLengthInMeters="0.00" maxJamLengthInVehicles="0" maxJamLengthInMeters="0.00" jamLengthInVehiclesSum="0" jamLengthInMetersSum="0.00" meanHaltingDuration="0.00" maxHaltingDuration="0.00" haltingDurationSum="0.00" meanIntervalHaltingDuration="0.00" maxIntervalHaltingDuration="0.00" intervalHaltingDurationSum="0.00" startedHalts="0.00" meanVehicleNumber="16.85" maxVehicleNumber="21" />
   <interval begin="420.00" end="480.00" id="mainline_up_1_2" sampledSeconds="1346.91" nVehEntered="32" nVehLeft="35" nVehSeen="52" meanSpeed="17.46" meanTimeLoss="3.34" meanOccupancy="14.00" maxOccupancy="17.59" meanMaxJamLengthInVehicles="0.00" meanMaxJamLengthInMeters="0.00" maxJamLengthInVehicles="0" maxJamLengthInMeters="0.00" jamLengthInVehiclesSum="0" jamLengthInMetersSum="0.00" meanHaltingDuration="0.00" maxHaltingDuration="0.00" haltingDurationSum="0.00" meanIntervalHaltingDuration="0.00" maxIntervalHaltingDuration="0.00" intervalHaltingDurationSum="0.00" startedHalts="0.00" meanVehicleNumber="22.92" maxVehicleNumber="29" />
   <interval begin="420.00" end="480.00" id="mainline_up_2_2" sampledSeconds="1521.26" nVehEntered="38" nVehLeft="38" nVehSeen="60" meanSpeed="19.11" meanTimeLoss="2.12" meanOccupancy="15.83" maxOccupancy="16.96" meanMaxJamLengthInVehicles="0.00" meanMaxJamLengthInMeters="0.00" maxJamLengthInVehicles="0" maxJamLengthInMeters="0.00" jamLengthInVehiclesSum="0" jamLengthInMetersSum="0.00" meanHaltingDuration="0.00" maxHaltingDuration="0.00" haltingDurationSum="0.00" meanIntervalHaltingDuration="0.00" maxIntervalHaltingDuration="0.00" intervalHaltingDurationSum="0.00" startedHalts="0.00" meanVehicleNumber="25.93" maxVehicleNumber="28" />
   <interval begin="480.00" end="540.00" id="mainline_up_0_2" sampledSeconds="1152.20" nVehEntered="39" nVehLeft="28" nVehSeen="52" meanSpeed="14.97" meanTimeLoss="1.70" meanOccupancy="12.00" maxOccupancy="14.78" meanMaxJamLengthInVehicles="0.00" meanMaxJamLengthInMeters="0.00" maxJamLengthInVehicles="0" maxJamLengthInMeters="0.00" jamLengthInVehiclesSum="0" jamLengthInMetersSum="0.00" meanHaltingDuration="0.00" maxHaltingDuration="0.00" haltingDurationSum="0.00" meanIntervalHaltingDuration="0.00" maxIntervalHaltingDuration="0.00" intervalHaltingDurationSum="0.00" startedHalts="0.00" meanVehicleNumber="19.52" maxVehicleNumber="24" />
   <interval begin="480.00" end="540.00" id="mainline_up_1_2" sampledSeconds="1350.52" nVehEntered="55" nVehLeft="44" nVehSeen="72" meanSpeed="15.29" meanTimeLoss="1.43" meanOccupancy="14.05" maxOccupancy="17.59" meanMaxJamLengthInVehicles="0.00" meanMaxJamLengthInMeters="0.00" maxJamLengthInVehicles="0" maxJamLengthInMeters="0.00" jamLengthInVehiclesSum="0" jamLengthInMetersSum="0.00" meanHaltingDuration="0.00" maxHaltingDuration="0.00" haltingDurationSum="0.00" meanIntervalHaltingDuration="0.00" maxIntervalHaltingDuration="0.00" intervalHaltingDurationSum="0.00" startedHalts="0.00" meanVehicleNumber="22.97" maxVehicleNumber="29" />
   <interval begin="480.00" end="540.00" id="mainline_up_2_2" sampledSeconds="1332.47" nVehEntered="38" nVehLeft="33" nVehSeen="60" meanSpeed="15.27" meanTimeLoss="1.68" meanOccupancy="13.93" maxOccupancy="17.59" meanMaxJamLengthInVehicles="0.00" meanMaxJamLengthInMeters="0.00" maxJamLengthInVehicles="0" maxJamLengthInMeters="0.00" jamLengthInVehiclesSum="0" jamLengthInMetersSum="0.00" meanHaltingDuration="0.00" maxHaltingDuration="0.00" haltingDurationSum="0.00" meanIntervalHaltingDuration="0.00" maxIntervalHaltingDuration="0.00" intervalHaltingDurationSum="0.00" startedHalts="0.00" meanVehicleNumber="22.68" maxVehicleNumber="28" />
   <interval begin="540.00" end="600.00" id="mainline_up_0_2" sampledSeconds="1298.50" nVehEntered="23" nVehLeft="30" nVehSeen="47" meanSpeed="12.96" meanTimeLoss="3.26" meanOccupancy="13.44" maxOccupancy="15.69" meanMaxJamLengthInVehicles="0.00" meanMaxJamLengthInMeters="0.00" maxJamLengthInVehicles="0" maxJamLengthInMeters="0.00" jamLengthInVehiclesSum="0" jamLengthInMetersSum="0.00" meanHaltingDuration="0.00" maxHaltingDuration="0.00" haltingDurationSum="0.00" meanIntervalHaltingDuration="0.00" maxIntervalHaltingDuration="0.00" intervalHaltingDurationSum="0.00" startedHalts="0.00" meanVehicleNumber="21.93" maxVehicleNumber="25" />
   <interval begin="540.00" end="600.00" id="mainline_up_1_2" sampledSeconds="1553.26" nVehEntered="40" nVehLeft="42" nVehSeen="68" meanSpeed="13.61" meanTimeLoss="2.16" meanOccupancy="16.12" maxOccupancy="17.59" meanMaxJamLengthInVehicles="0.00" meanMaxJamLengthInMeters="0.00" maxJamLengthInVehicles="0" maxJamLengthInMeters="0.00" jamLengthInVehiclesSum="0" jamLengthInMetersSum="0.00" meanHaltingDuration="0.00" maxHaltingDuration="0.00" haltingDurationSum="0.00" meanIntervalHaltingDuration="0.00" maxIntervalHaltingDuration="0.00" intervalHaltingDurationSum="0.00" startedHalts="0.00" meanVehicleNumber="26.28" maxVehicleNumber="29" />
   <interval begin="540.00" end="600.00" id="mainline_up_2_2" sampledSeconds="1571.53" nVehEntered="33" nVehLeft="34" nVehSeen="60" meanSpeed="13.43" meanTimeLoss="2.86" meanOccupancy="16.39" maxOccupancy="17.59" meanMaxJamLengthInVehicles="0.00" meanMaxJamLengthInMeters="0.00" maxJamLengthInVehicles="0" maxJamLengthInMeters="0.00" jamLengthInVehiclesSum="0" jamLengthInMetersSum="0.00" meanHaltingDuration="0.00" maxHaltingDuration="0.00" haltingDurationSum="0.00" meanIntervalHaltingDuration="0.00" maxIntervalHaltingDuration="0.00" intervalHaltingDurationSum="0.00" startedHalts="0.00" meanVehicleNumber="26.70" maxVehicleNumber="29" />
   <interval begin="600.00" end="660.00" id="mainline_up_0_2" sampledSeconds="1314.88" nVehEntered="30" nVehLeft="26" nVehSeen="47" meanSpeed="13.54" meanTimeLoss="3.12" meanOccupancy="13.62" maxOccupancy="15.76" meanMaxJamLengthInVehicles="0.00" meanMaxJamLengthInMeters="0.00" maxJamLengthInVehicles="0" maxJamLengthInMeters="0.00" jamLengthInVehiclesSum="0" jamLengthInMetersSum="0.00" meanHaltingDuration="0.00" maxHaltingDuration="0.00" haltingDurationSum="0.00" meanIntervalHaltingDuration="0.00" maxIntervalHaltingDuration="0.00" intervalHaltingDurationSum="0.00" startedHalts="0.00" meanVehicleNumber="22.27" maxVehicleNumber="26" />
   <interval begin="600.00" end="660.00" id="mainline_up_1_2" sampledSeconds="1565.10" nVehEntered="48" nVehLeft="47" nVehSeen="74" meanSpeed="13.81" meanTimeLoss="2.68" meanOccupancy="16.30" maxOccupancy="17.71" meanMaxJamLengthInVehicles="0.00" meanMaxJamLengthInMeters="0.00" maxJamLengthInVehicles="0" maxJamLengthInMeters="0.00" jamLengthInVehiclesSum="0" jamLengthInMetersSum="0.00" meanHaltingDuration="0.00" maxHaltingDuration="0.00" haltingDurationSum="0.00" meanIntervalHaltingDuration="0.00" maxIntervalHaltingDuration="0.00" intervalHaltingDurationSum="0.00" startedHalts="0.00" meanVehicleNumber="26.55" maxVehicleNumber="29" />
   <interval begin="600.00" end="660.00" id="mainline_up_2_2" sampledSeconds="1585.94" nVehEntered="37" nVehLeft="34" nVehSeen="63" meanSpeed="14.07" meanTimeLoss="2.96" meanOccupancy="16.56" maxOccupancy="18.22" meanMaxJamLengthInVehicles="0.00" meanMaxJamLengthInMeters="0.00" maxJamLengthInVehicles="0" maxJamLengthInMeters="0.00" jamLengthInVehiclesSum="0" jamLengthInMetersSum="0.00" meanHaltingDuration="0.00" maxHaltingDuration="0.00" haltingDurationSum="0.00" meanIntervalHaltingDuration="0.00" maxIntervalHaltingDuration="0.00" intervalHaltingDurationSum="0.00" startedHalts="0.00" meanVehicleNumber="26.85" maxVehicleNumber="30" />
   <interval begin="660.00" end="720.00" id="mainline_up_0_2" sampledSeconds="1093.22" nVehEntered="29" nVehLeft="29" nVehSeen="50" meanSpeed="14.76" meanTimeLoss="2.93" meanOccupancy="11.29" maxOccupancy="13.19" meanMaxJamLengthInVehicles="0.03" meanMaxJamLengthInMeters="0.17" maxJamLengthInVehicles="1" maxJamLengthInMeters="5.00" jamLengthInVehiclesSum="2" jamLengthInMetersSum="10.00" meanHaltingDuration="2.00" maxHaltingDuration="3.00" haltingDurationSum="4.00" meanIntervalHaltingDuration="2.00" maxIntervalHaltingDuration="3.00" intervalHaltingDurationSum="4.00" startedHalts="2.00" meanVehicleNumber="18.57" maxVehicleNumber="21" />
   <interval begin="660.00" end="720.00" id="mainline_up_1_2" sampledSeconds="1475.98" nVehEntered="45" nVehLeft="48" nVehSeen="72" meanSpeed="15.91" meanTimeLoss="2.11" meanOccupancy="15.36" maxOccupancy="17.59" meanMaxJamLengthInVehicles="0.00" meanMaxJamLengthInMeters="0.00" maxJamLengthInVehicles="0" maxJamLengthInMeters="0.00" jamLengthInVehiclesSum="0" jamLengthInMetersSum="0.00" meanHaltingDuration="0.00" maxHaltingDuration="0.00" haltingDurationSum="0.00" meanIntervalHaltingDuration="0.00" maxIntervalHaltingDuration="0.00" intervalHaltingDurationSum="0.00" startedHalts="0.00" meanVehicleNumber="25.13" maxVehicleNumber="29" />
   <interval begin="660.00" end="720.00" id="mainline_up_2_2" sampledSeconds="1751.78" nVehEntered="37" nVehLeft="39" nVehSeen="66" meanSpeed="16.09" meanTimeLoss="2.73" meanOccupancy="18.26" maxOccupancy="19.42" meanMaxJamLengthInVehicles="0.00" meanMaxJamLengthInMeters="0.00" maxJamLengthInVehicles="0" maxJamLengthInMeters="0.00" jamLengthInVehiclesSum="0" jamLengthInMetersSum="0.00" meanHaltingDuration="0.00" maxHaltingDuration="0.00" haltingDurationSum="0.00" meanIntervalHaltingDuration="0.00" maxIntervalHaltingDuration="0.00" intervalHaltingDurationSum="0.00" startedHalts="0.00" meanVehicleNumber="29.80" maxVehicleNumber="31" />
   <interval begin="720.00" end="780.00" id="mainline_up_0_2" sampledSeconds="1349.29" nVehEntered="28" nVehLeft="30" nVehSeen="49" meanSpeed="14.08" meanTimeLoss="2.33" meanOccupancy="13.98" maxOccupancy="16.33" meanMaxJamLengthInVehicles="0.00" meanMaxJamLengthInMeters="0.00" maxJamLengthInVehicles="0" maxJamLengthInMeters="0.00" jamLengthInVehiclesSum="0" jamLengthInMetersSum="0.00" meanHaltingDuration="0.00" maxHaltingDuration="0.00" haltingDurationSum="0.00" meanIntervalHaltingDuration="0.00" maxIntervalHaltingDuration="0.00" intervalHaltingDurationSum="0.00" startedHalts="0.00" meanVehicleNumber="22.83" maxVehicleNumber="27" />
   <interval begin="720.00" end="780.00" id="mainline_up_1_2" sampledSeconds="1415.92" nVehEntered="36" nVehLeft="37" nVehSeen="60" meanSpeed="14.11" meanTimeLoss="2.22" meanOccupancy="14.71" maxOccupancy="16.88" meanMaxJamLengthInVehicles="0.00" meanMaxJamLengthInMeters="0.00" maxJamLengthInVehicles="0" maxJamLengthInMeters="0.00" jamLengthInVehiclesSum="0" jamLengthInMetersSum="0.00" meanHaltingDuration="0.00" maxHaltingDuration="0.00" haltingDurationSum="0.00" meanIntervalHaltingDuration="0.00" maxIntervalHaltingDuration="0.00" intervalHaltingDurationSum="0.00" startedHalts="0.00" meanVehicleNumber="24.07" maxVehicleNumber="28" />
   <interval begin="720.00" end="780.00" id="mainline_up_2_2" sampledSeconds="1572.28" nVehEntered="32" nVehLeft="34" nVehSeen="59" meanSpeed="14.08" meanTimeLoss="3.06" meanOccupancy="16.41" maxOccupancy="18.22" meanMaxJamLengthInVehicles="0.00" meanMaxJamLengthInMeters="0.00" maxJamLengthInVehicles="0" maxJamLengthInMeters="0.00" jamLengthInVehiclesSum="0" jamLengthInMetersSum="0.00" meanHaltingDuration="0.00" maxHaltingDuration="0.00" haltingDurationSum="0.00" meanIntervalHaltingDuration="0.00" maxIntervalHaltingDuration="0.00" intervalHaltingDurationSum="0.00" startedHalts="0.00" meanVehicleNumber="26.65" maxVehicleNumber="30" />
   <interval begin="780.00" end="840.00" id="mainline_up_0_2" sampledSeconds="1410.84" nVehEntered="34" nVehLeft="25" nVehSeen="53" meanSpeed="12.38" meanTimeLoss="4.70" meanOccupancy="14.66" maxOccupancy="18.20" meanMaxJamLengthInVehicles="1.02" meanMaxJamLengthInMeters="7.55" maxJamLengthInVehicles="7" maxJamLengthInMeters="52.28" jamLengthInVehiclesSum="61" jamLengthInMetersSum="453.19" meanHaltingDuration="4.60" maxHaltingDuration="14.00" haltingDurationSum="46.00" meanIntervalHaltingDuration="4.60" maxIntervalHaltingDuration="14.00" intervalHaltingDurationSum="46.00" startedHalts="14.00" meanVehicleNumber="23.80" maxVehicleNumber="29" />
   <interval begin="780.00" end="840.00" id="mainline_up_1_2" sampledSeconds="1494.94" nVehEntered="47" nVehLeft="46" nVehSeen="70" meanSpeed="13.14" meanTimeLoss="2.60" meanOccupancy="15.55" maxOccupancy="18.17" meanMaxJamLengthInVehicles="0.00" meanMaxJamLengthInMeters="0.00" maxJamLengthInVehicles="0" maxJamLengthInMeters="0.00" jamLengthInVehiclesSum="0" jamLengthInMetersSum="0.00" meanHaltingDuration="0.00" maxHaltingDuration="0.00" haltingDurationSum="0.00" meanIntervalHaltingDuration="0.00" maxIntervalHaltingDuration="0.00" intervalHaltingDurationSum="0.00" startedHalts="0.00" meanVehicleNumber="25.37" maxVehicleNumber="29" />
   <interval begin="780.00" end="840.00" id="mainline_up_2_2" sampledSeconds="1599.25" nVehEntered="38" nVehLeft="36" nVehSeen="63" meanSpeed="13.45" meanTimeLoss="2.61" meanOccupancy="16.65" maxOccupancy="18.16" meanMaxJamLengthInVehicles="0.00" meanMaxJamLengthInMeters="0.00" maxJamLengthInVehicles="0" maxJamLengthInMeters="0.00" jamLengthInVehiclesSum="0" jamLengthInMetersSum="0.00" meanHaltingDuration="0.00" maxHaltingDuration="0.00" haltingDurationSum="0.00" meanIntervalHaltingDuration="0.00" maxIntervalHaltingDuration="0.00" intervalHaltingDurationSum="0.00" startedHalts="0.00" meanVehicleNumber="27.10" maxVehicleNumber="29" />
   <interval begin="840.00" end="900.00" id="mainline_up_0_2" sampledSeconds="1486.16" nVehEntered="27" nVehLeft="33" nVehSeen="55" meanSpeed="13.51" meanTimeLoss="4.03" meanOccupancy="15.39" maxOccupancy="18.30" meanMaxJamLengthInVehicles="0.00" meanMaxJamLengthInMeters="0.00" maxJamLengthInVehicles="0" maxJamLengthInMeters="0.00" jamLengthInVehiclesSum="0" jamLengthInMetersSum="0.00" meanHaltingDuration="0.00" maxHaltingDuration="0.00" haltingDurationSum="0.00" meanIntervalHaltingDuration="0.00" maxIntervalHaltingDuration="0.00" intervalHaltingDurationSum="0.00" startedHalts="0.00" meanVehicleNumber="25.15" maxVehicleNumber="30" />
   <interval begin="840.00" end="900.00" id="mainline_up_1_2" sampledSeconds="1592.54" nVehEntered="47" nVehLeft="47" nVehSeen="71" meanSpeed="14.29" meanTimeLoss="2.39" meanOccupancy="16.53" maxOccupancy="18.84" meanMaxJamLengthInVehicles="0.00" meanMaxJamLengthInMeters="0.00" maxJamLengthInVehicles="0" maxJamLengthInMeters="0.00" jamLengthInVehiclesSum="0" jamLengthInMetersSum="0.00" meanHaltingDuration="0.00" maxHaltingDuration="0.00" haltingDurationSum="0.00" meanIntervalHaltingDuration="0.00" maxIntervalHaltingDuration="0.00" intervalHaltingDurationSum="0.00" startedHalts="0.00" meanVehicleNumber="27.05" maxVehicleNumber="31" />
   <interval begin="840.00" end="900.00" id="mainline_up_2_2" sampledSeconds="1650.97" nVehEntered="41" nVehLeft="44" nVehSeen="68" meanSpeed="14.86" meanTimeLoss="1.79" meanOccupancy="17.15" maxOccupancy="18.84" meanMaxJamLengthInVehicles="0.00" meanMaxJamLengthInMeters="0.00" maxJamLengthInVehicles="0" maxJamLengthInMeters="0.00" jamLengthInVehiclesSum="0" jamLengthInMetersSum="0.00" meanHaltingDuration="0.00" maxHaltingDuration="0.00" haltingDurationSum="0.00" meanIntervalHaltingDuration="0.00" maxIntervalHaltingDuration="0.00" intervalHaltingDurationSum="0.00" startedHalts="0.00" meanVehicleNumber="28.05" maxVehicleNumber="31" />