<?xml version="1.0" encoding="UTF-8"?>

<!-- generated on 03/01/19 00:11:24 by Eclipse SUMO Version 1.0.1
<configuration xmlns:xsi="http://www.w3.org/2001/XMLSchema-instance" xsi:noNamespaceSchemaLocation="http://sumo.dlr.de/xsd/sumoConfiguration.xsd">

    <input>
        <net-file value="./project/ramp.net.xml"/>
        <route-files value="./project/ramp.rou.xml"/>
        <additional-files value="./project/ramp.add.xml"/>
    </input>

    <time>
        <begin value="0"/>
    </time>

    <report>
        <verbose value="true"/>
        <no-step-log value="true"/>
    </report>

    <traci_server>
        <remote-port value="46532"/>
    </traci_server>

    <random_number>
        <seed value="2084782737"/>
    </random_number>

    <gui_only>
        <quit-on-end value="true"/>
        <start value="true"/>
    </gui_only>

</configuration>
-->

<detector xmlns:xsi="http://www.w3.org/2001/XMLSchema-instance" xsi:noNamespaceSchemaLocation="http://sumo.dlr.de/xsd/det_e2_file.xsd">
   <interval begin="0.00" end="60.00" id="mainline_up_0_2" sampledSeconds="0.00" nVehEntered="0" nVehLeft="0" nVehSeen="0" meanSpeed="-1.00" meanTimeLoss="-1.00" meanOccupancy="0.00" maxOccupancy="0.00" meanMaxJamLengthInVehicles="0.00" meanMaxJamLengthInMeters="0.00" maxJamLengthInVehicles="0" maxJamLengthInMeters="0.00" jamLengthInVehiclesSum="0" jamLengthInMetersSum="0.00" meanHaltingDuration="0.00" maxHaltingDuration="0.00" haltingDurationSum="0.00" meanIntervalHaltingDuration="0.00" maxIntervalHaltingDuration="0.00" intervalHaltingDurationSum="0.00" startedHalts="0.00" meanVehicleNumber="0.00" maxVehicleNumber="0" />
   <interval begin="0.00" end="60.00" id="mainline_up_1_2" sampledSeconds="0.00" nVehEntered="0" nVehLeft="0" nVehSeen="0" meanSpeed="-1.00" meanTimeLoss="-1.00" meanOccupancy="0.00" maxOccupancy="0.00" meanMaxJamLengthInVehicles="0.00" meanMaxJamLengthInMeters="0.00" maxJamLengthInVehicles="0" maxJamLengthInMeters="0.00" jamLengthInVehiclesSum="0" jamLengthInMetersSum="0.00" meanHaltingDuration="0.00" maxHaltingDuration="0.00" haltingDurationSum="0.00" meanIntervalHaltingDuration="0.00" maxIntervalHaltingDuration="0.00" intervalHaltingDurationSum="0.00" startedHalts="0.00" meanVehicleNumber="0.00" maxVehicleNumber="0" />
   <interval begin="0.00" end="60.00" id="mainline_up_2_2" sampledSeconds="0.00" nVehEntered="0" nVehLeft="0" nVehSeen="0" meanSpeed="-1.00" meanTimeLoss="-1.00" meanOccupancy="0.00" maxOccupancy="0.00" meanMaxJamLengthInVehicles="0.00" meanMaxJamLengthInMeters="0.00" maxJamLengthInVehicles="0" maxJamLengthInMeters="0.00" jamLengthInVehiclesSum="0" jamLengthInMetersSum="0.00" meanHaltingDuration="0.00" maxHaltingDuration="0.00" haltingDurationSum="0.00" meanIntervalHaltingDuration="0.00" maxIntervalHaltingDuration="0.00" intervalHaltingDurationSum="0.00" startedHalts="0.00" meanVehicleNumber="0.00" maxVehicleNumber="0" />
   <interval begin="60.00" end="120.00" id="mainline_up_0_2" sampledSeconds="282.68" nVehEntered="17" nVehLeft="6" nVehSeen="17" meanSpeed="19.27" meanTimeLoss="0.37" meanOccupancy="2.98" maxOccupancy="6.39" meanMaxJamLengthInVehicles="0.00" meanMaxJamLengthInMeters="0.00" maxJamLengthInVehicles="0" maxJamLengthInMeters="0.00" jamLengthInVehiclesSum="0" jamLengthInMetersSum="0.00" meanHaltingDuration="0.00" maxHaltingDuration="0.00" haltingDurationSum="0.00" meanIntervalHaltingDuration="0.00" maxIntervalHaltingDuration="0.00" intervalHaltingDurationSum="0.00" startedHalts="0.00" meanVehicleNumber="4.88" maxVehicleNumber="11" />
   <interval begin="60.00" end="120.00" id="mainline_up_1_2" sampledSeconds="227.11" nVehEntered="16" nVehLeft="5" nVehSeen="16" meanSpeed="19.95" meanTimeLoss="0.47" meanOccupancy="2.42" maxOccupancy="6.91" meanMaxJamLengthInVehicles="0.00" meanMaxJamLengthInMeters="0.00" maxJamLengthInVehicles="0" maxJamLengthInMeters="0.00" jamLengthInVehiclesSum="0" jamLengthInMetersSum="0.00" meanHaltingDuration="0.00" maxHaltingDuration="0.00" haltingDurationSum="0.00" meanIntervalHaltingDuration="0.00" maxIntervalHaltingDuration="0.00" intervalHaltingDurationSum="0.00" startedHalts="0.00" meanVehicleNumber="3.87" maxVehicleNumber="12" />
   <interval begin="60.00" end="120.00" id="mainline_up_2_2" sampledSeconds="182.87" nVehEntered="14" nVehLeft="3" nVehSeen="14" meanSpeed="18.91" meanTimeLoss="0.55" meanOccupancy="1.96" maxOccupancy="6.91" meanMaxJamLengthInVehicles="0.00" meanMaxJamLengthInMeters="0.00" maxJamLengthInVehicles="0" maxJamLengthInMeters="0.00" jamLengthInVehiclesSum="0" jamLengthInMetersSum="0.00" meanHaltingDuration="0.00" maxHaltingDuration="0.00" haltingDurationSum="0.00" meanIntervalHaltingDuration="0.00" maxIntervalHaltingDuration="0.00" intervalHaltingDurationSum="0.00" startedHalts="0.00" meanVehicleNumber="3.18" maxVehicleNumber="12" />
   <interval begin="120.00" end="180.00" id="mainline_up_0_2" sampledSeconds="1122.60" nVehEntered="30" nVehLeft="21" nVehSeen="41" meanSpeed="15.19" meanTimeLoss="1.99" meanOccupancy="11.68" maxOccupancy="14.53" meanMaxJamLengthInVehicles="0.00" meanMaxJamLengthInMeters="0.00" maxJamLengthInVehicles="0" maxJamLengthInMeters="0.00" jamLengthInVehiclesSum="0" jamLengthInMetersSum="0.00" meanHaltingDuration="0.00" maxHaltingDuration="0.00" haltingDurationSum="0.00" meanIntervalHaltingDuration="0.00" maxIntervalHaltingDuration="0.00" intervalHaltingDurationSum="0.00" startedHalts="0.00" meanVehicleNumber="19.00" maxVehicleNumber="24" />
   <interval begin="120.00" end="180.00" id="mainline_up_1_2" sampledSeconds="1137.60" nVehEntered="43" nVehLeft="37" nVehSeen="54" meanSpeed="15.20" meanTimeLoss="1.98" meanOccupancy="11.89" maxOccupancy="15.70" meanMaxJamLengthInVehicles="0.00" meanMaxJamLengthInMeters="0.00" maxJamLengthInVehicles="0" maxJamLengthInMeters="0.00" jamLengthInVehiclesSum="0" jamLengthInMetersSum="0.00" meanHaltingDuration="0.00" maxHaltingDuration="0.00" haltingDurationSum="0.00" meanIntervalHaltingDuration="0.00" maxIntervalHaltingDuration="0.00" intervalHaltingDurationSum="0.00" startedHalts="0.00" meanVehicleNumber="19.35" maxVehicleNumber="26" />
   <interval begin="120.00" end="180.00" id="mainline_up_2_2" sampledSeconds="1089.09" nVehEntered="33" nVehLeft="22" nVehSeen="44" meanSpeed="15.56" meanTimeLoss="2.23" meanOccupancy="11.45" maxOccupancy="14.45" meanMaxJamLengthInVehicles="0.00" meanMaxJamLengthInMeters="0.00" maxJamLengthInVehicles="0" maxJamLengthInMeters="0.00" jamLengthInVehiclesSum="0" jamLengthInMetersSum="0.00" meanHaltingDuration="0.00" maxHaltingDuration="0.00" haltingDurationSum="0.00" meanIntervalHaltingDuration="0.00" maxIntervalHaltingDuration="0.00" intervalHaltingDurationSum="0.00" startedHalts="0.00" meanVehicleNumber="18.50" maxVehicleNumber="23" />
   <interval begin="180.00" end="240.00" id="mainline_up_0_2" sampledSeconds="1148.51" nVehEntered="28" nVehLeft="27" nVehSeen="48" meanSpeed="15.39" meanTimeLoss="1.14" meanOccupancy="11.91" maxOccupancy="13.82" meanMaxJamLengthInVehicles="0.00" meanMaxJamLengthInMeters="0.00" maxJamLengthInVehicles="0" maxJamLengthInMeters="0.00" jamLengthInVehiclesSum="0" jamLengthInMetersSum="0.00" meanHaltingDuration="0.00" maxHaltingDuration="0.00" haltingDurationSum="0.00" meanIntervalHaltingDuration="0.00" maxIntervalHaltingDuration="0.00" intervalHaltingDurationSum="0.00" startedHalts="0.00" meanVehicleNumber="19.52" maxVehicleNumber="23" />
   <interval begin="180.00" end="240.00" id="mainline_up_1_2" sampledSeconds="1170.98" nVehEntered="35" nVehLeft="34" nVehSeen="52" meanSpeed="15.59" meanTimeLoss="1.04" meanOccupancy="12.21" maxOccupancy="13.73" meanMaxJamLengthInVehicles="0.00" meanMaxJamLengthInMeters="0.00" maxJamLengthInVehicles="0" maxJamLengthInMeters="0.00" jamLengthInVehiclesSum="0" jamLengthInMetersSum="0.00" meanHaltingDuration="0.00" maxHaltingDuration="0.00" haltingDurationSum="0.00" meanIntervalHaltingDuration="0.00" maxIntervalHaltingDuration="0.00" intervalHaltingDurationSum="0.00" startedHalts="0.00" meanVehicleNumber="19.95" maxVehicleNumber="22" />
   <interval begin="180.00" end="240.00" id="mainline_up_2_2" sampledSeconds="1299.83" nVehEntered="34" nVehLeft="38" nVehSeen="56" meanSpeed="15.72" meanTimeLoss="1.07" meanOccupancy="13.55" maxOccupancy="15.08" meanMaxJamLengthInVehicles="0.00" meanMaxJamLengthInMeters="0.00" maxJamLengthInVehicles="0" maxJamLengthInMeters="0.00" jamLengthInVehiclesSum="0" jamLengthInMetersSum="0.00" meanHaltingDuration="0.00" maxHaltingDuration="0.00" haltingDurationSum="0.00" meanIntervalHaltingDuration="0.00" maxIntervalHaltingDuration="0.00" intervalHaltingDurationSum="0.00" startedHalts="0.00" meanVehicleNumber="22.12" maxVehicleNumber="25" />
   <interval begin="240.00" end="300.00" id="mainline_up_0_2" sampledSeconds="1140.09" nVehEntered="24" nVehLeft="28" nVehSeen="45" meanSpeed="15.75" meanTimeLoss="1.55" meanOccupancy="11.78" maxOccupancy="13.82" meanMaxJamLengthInVehicles="0.03" meanMaxJamLengthInMeters="0.01" maxJamLengthInVehicles="1" maxJamLengthInMeters="0.49" jamLengthInVehiclesSum="2" jamLengthInMetersSum="0.49" meanHaltingDuration="0.00" maxHaltingDuration="0.00" haltingDurationSum="0.00" meanIntervalHaltingDuration="0.00" maxIntervalHaltingDuration="0.00" intervalHaltingDurationSum="0.00" startedHalts="1.00" meanVehicleNumber="19.27" maxVehicleNumber="22" />
   <interval begin="240.00" end="300.00" id="mainline_up_1_2" sampledSeconds="1430.10" nVehEntered="51" nVehLeft="46" nVehSeen="69" meanSpeed="15.92" meanTimeLoss="1.30" meanOccupancy="14.84" maxOccupancy="16.85" meanMaxJamLengthInVehicles="0.00" meanMaxJamLengthInMeters="0.00" maxJamLengthInVehicles="0" maxJamLengthInMeters="0.00" jamLengthInVehiclesSum="0" jamLengthInMetersSum="0.00" meanHaltingDuration="0.00" maxHaltingDuration="0.00" haltingDurationSum="0.00" meanIntervalHaltingDuration="0.00" maxIntervalHaltingDuration="0.00" intervalHaltingDurationSum="0.00" startedHalts="0.00" meanVehicleNumber="24.33" maxVehicleNumber="27" />
   <interval begin="240.00" end="300.00" id="mainline_up_2_2" sampledSeconds="1401.63" nVehEntered="40" nVehLeft="31" nVehSeen="58" meanSpeed="15.71" meanTimeLoss="2.02" meanOccupancy="14.67" maxOccupancy="17.59" meanMaxJamLengthInVehicles="0.00" meanMaxJamLengthInMeters="0.00" maxJamLengthInVehicles="0" maxJamLengthInMeters="0.00" jamLengthInVehiclesSum="0" jamLengthInMetersSum="0.00" meanHaltingDuration="0.00" maxHaltingDuration="0.00" haltingDurationSum="0.00" meanIntervalHaltingDuration="0.00" maxIntervalHaltingDuration="0.00" intervalHaltingDurationSum="0.00" startedHalts="0.00" meanVehicleNumber="23.83" maxVehicleNumber="28" />
   <interval begin="300.00" end="360.00" id="mainline_up_0_2" sampledSeconds="1151.26" nVehEntered="34" nVehLeft="31" nVehSeen="51" meanSpeed="16.06" meanTimeLoss="1.00" meanOccupancy="11.95" maxOccupancy="13.82" meanMaxJamLengthInVehicles="0.00" meanMaxJamLengthInMeters="0.00" maxJamLengthInVehicles="0" maxJamLengthInMeters="0.00" jamLengthInVehiclesSum="0" jamLengthInMetersSum="0.00" meanHaltingDuration="0.00" maxHaltingDuration="0.00" haltingDurationSum="0.00" meanIntervalHaltingDuration="0.00" maxIntervalHaltingDuration="0.00" intervalHaltingDurationSum="0.00" startedHalts="0.00" meanVehicleNumber="19.57" maxVehicleNumber="23" />
   <interval begin="300.00" end="360.00" id="mainline_up_1_2" sampledSeconds="1244.79" nVehEntered="42" nVehLeft="46" nVehSeen="65" meanSpeed="16.27" meanTimeLoss="0.86" meanOccupancy="12.93" maxOccupancy="16.33" meanMaxJamLengthInVehicles="0.00" meanMaxJamLengthInMeters="0.00" maxJamLengthInVehicles="0" maxJamLengthInMeters="0.00" jamLengthInVehiclesSum="0" jamLengthInMetersSum="0.00" meanHaltingDuration="0.00" maxHaltingDuration="0.00" haltingDurationSum="0.00" meanIntervalHaltingDuration="0.00" maxIntervalHaltingDuration="0.00" intervalHaltingDurationSum="0.00" startedHalts="0.00" meanVehicleNumber="21.27" maxVehicleNumber="27" />
   <interval begin="300.00" end="360.00" id="mainline_up_2_2" sampledSeconds="1494.19" nVehEntered="32" nVehLeft="38" nVehSeen="59" meanSpeed="16.35" meanTimeLoss="1.18" meanOccupancy="15.58" maxOccupancy="18.70" meanMaxJamLengthInVehicles="0.00" meanMaxJamLengthInMeters="0.00" maxJamLengthInVehicles="0" maxJamLengthInMeters="0.00" jamLengthInVehiclesSum="0" jamLengthInMetersSum="0.00" meanHaltingDuration="0.00" maxHaltingDuration="0.00" haltingDurationSum="0.00" meanIntervalHaltingDuration="0.00" maxIntervalHaltingDuration="0.00" intervalHaltingDurationSum="0.00" startedHalts="0.00" meanVehicleNumber="25.43" maxVehicleNumber="30" />
   <interval begin="360.00" end="420.00" id="mainline_up_0_2" sampledSeconds="1233.52" nVehEntered="27" nVehLeft="26" nVehSeen="47" meanSpeed="15.99" meanTimeLoss="1.43" meanOccupancy="12.82" maxOccupancy="14.89" meanMaxJamLengthInVehicles="0.00" meanMaxJamLengthInMeters="0.00" maxJamLengthInVehicles="0" maxJamLengthInMeters="0.00" jamLengthInVehiclesSum="0" jamLengthInMetersSum="0.00" meanHaltingDuration="0.00" maxHaltingDuration="0.00" haltingDurationSum="0.00" meanIntervalHaltingDuration="0.00" maxIntervalHaltingDuration="0.00" intervalHaltingDurationSum="0.00" startedHalts="0.00" meanVehicleNumber="20.87" maxVehicleNumber="24" />
   <interval begin="360.00" end="420.00" id="mainline_up_1_2" sampledSeconds="1362.37" nVehEntered="42" nVehLeft="37" nVehSeen="61" meanSpeed="16.26" meanTimeLoss="1.11" meanOccupancy="14.14" maxOccupancy="16.33" meanMaxJamLengthInVehicles="0.00" meanMaxJamLengthInMeters="0.00" maxJamLengthInVehicles="0" maxJamLengthInMeters="0.00" jamLengthInVehiclesSum="0" jamLengthInMetersSum="0.00" meanHaltingDuration="0.00" maxHaltingDuration="0.00" haltingDurationSum="0.00" meanIntervalHaltingDuration="0.00" maxIntervalHaltingDuration="0.00" intervalHaltingDurationSum="0.00" startedHalts="0.00" meanVehicleNumber="23.15" maxVehicleNumber="27" />
   <interval begin="360.00" end="420.00" id="mainline_up_2_2" sampledSeconds="1422.13" nVehEntered="37" nVehLeft="30" nVehSeen="58" meanSpeed="16.32" meanTimeLoss="1.27" meanOccupancy="14.88" maxOccupancy="18.22" meanMaxJamLengthInVehicles="0.00" meanMaxJamLengthInMeters="0.00" maxJamLengthInVehicles="0" maxJamLengthInMeters="0.00" jamLengthInVehiclesSum="0" jamLengthInMetersSum="0.00" meanHaltingDuration="0.00" maxHaltingDuration="0.00" haltingDurationSum="0.00" meanIntervalHaltingDuration="0.00" maxIntervalHaltingDuration="0.00" intervalHaltingDurationSum="0.00" startedHalts="0.00" meanVehicleNumber="24.17" maxVehicleNumber="29" />
   <interval begin="420.00" end="480.00" id="mainline_up_0_2" sampledSeconds="1161.26" nVehEntered="31" nVehLeft="34" nVehSeen="52" meanSpeed="16.03" meanTimeLoss="1.07" meanOccupancy="12.02" maxOccupancy="13.19" meanMaxJamLengthInVehicles="0.00" meanMaxJamLengthInMeters="0.00" maxJamLengthInVehicles="0" maxJamLengthInMeters="0.00" jamLengthInVehiclesSum="0" jamLengthInMetersSum="0.00" meanHaltingDuration="0.00" maxHaltingDuration="0.00" haltingDurationSum="0.00" meanIntervalHaltingDuration="0.00" maxIntervalHaltingDuration="0.00" intervalHaltingDurationSum="0.00" startedHalts="0.00" meanVehicleNumber="19.77" maxVehicleNumber="22" />
   <interval begin="420.00" end="480.00" id="mainline_up_1_2" sampledSeconds="1388.86" nVehEntered="44" nVehLeft="47" nVehSeen="68" meanSpeed="16.33" meanTimeLoss="0.80" meanOccupancy="14.43" maxOccupancy="16.96" meanMaxJamLengthInVehicles="0.00" meanMaxJamLengthInMeters="0.00" maxJamLengthInVehicles="0" maxJamLengthInMeters="0.00" jamLengthInVehiclesSum="0" jamLengthInMetersSum="0.00" meanHaltingDuration="0.00" maxHaltingDuration="0.00" haltingDurationSum="0.00" meanIntervalHaltingDuration="0.00" maxIntervalHaltingDuration="0.00" intervalHaltingDurationSum="0.00" startedHalts="0.00" meanVehicleNumber="23.55" maxVehicleNumber="28" />
   <interval begin="420.00" end="480.00" id="mainline_up_2_2" sampledSeconds="1409.09" nVehEntered="37" nVehLeft="40" nVehSeen="65" meanSpeed="16.41" meanTimeLoss="0.96" meanOccupancy="14.68" maxOccupancy="16.96" meanMaxJamLengthInVehicles="0.00" meanMaxJamLengthInMeters="0.00" maxJamLengthInVehicles="0" maxJamLengthInMeters="0.00" jamLengthInVehiclesSum="0" jamLengthInMetersSum="0.00" meanHaltingDuration="0.00" maxHaltingDuration="0.00" haltingDurationSum="0.00" meanIntervalHaltingDuration="0.00" maxIntervalHaltingDuration="0.00" intervalHaltingDurationSum="0.00" startedHalts="0.00" meanVehicleNumber="23.97" maxVehicleNumber="28" />
   <interval begin="480.00" end="540.00" id="mainline_up_0_2" sampledSeconds="1208.67" nVehEntered="29" nVehLeft="28" nVehSeen="47" meanSpeed="15.17" meanTimeLoss="2.66" meanOccupancy="12.50" maxOccupancy="13.88" meanMaxJamLengthInVehicles="0.32" meanMaxJamLengthInMeters="1.90" maxJamLengthInVehicles="3" maxJamLengthInMeters="22.75" jamLengthInVehiclesSum="19" jamLengthInMetersSum="114.21" meanHaltingDuration="3.20" maxHaltingDuration="6.00" haltingDurationSum="16.00" meanIntervalHaltingDuration="3.20" maxIntervalHaltingDuration="6.00" intervalHaltingDurationSum="16.00" startedHalts="7.00" meanVehicleNumber="20.45" maxVehicleNumber="23" />
   <interval begin="480.00" end="540.00" id="mainline_up_1_2" sampledSeconds="1354.14" nVehEntered="45" nVehLeft="45" nVehSeen="66" meanSpeed="15.92" meanTimeLoss="1.38" meanOccupancy="14.10" maxOccupancy="16.81" meanMaxJamLengthInVehicles="0.00" meanMaxJamLengthInMeters="0.00" maxJamLengthInVehicles="0" maxJamLengthInMeters="0.00" jamLengthInVehiclesSum="0" jamLengthInMetersSum="0.00" meanHaltingDuration="1.00" maxHaltingDuration="1.00" haltingDurationSum="1.00" meanIntervalHaltingDuration="1.00" maxIntervalHaltingDuration="1.00" intervalHaltingDurationSum="1.00" startedHalts="1.00" meanVehicleNumber="23.02" maxVehicleNumber="27" />
   <interval begin="480.00" end="540.00" id="mainline_up_2_2" sampledSeconds="1507.92" nVehEntered="39" nVehLeft="41" nVehSeen="64" meanSpeed="16.30" meanTimeLoss="1.23" meanOccupancy="15.68" maxOccupancy="17.54" meanMaxJamLengthInVehicles="0.00" meanMaxJamLengthInMeters="0.00" maxJamLengthInVehicles="0" maxJamLengthInMeters="0.00" jamLengthInVehiclesSum="0" jamLengthInMetersSum="0.00" meanHaltingDuration="0.00" maxHaltingDuration="0.00" haltingDurationSum="0.00" meanIntervalHaltingDuration="0.00" maxIntervalHaltingDuration="0.00" intervalHaltingDurationSum="0.00" startedHalts="0.00" meanVehicleNumber="25.68" maxVehicleNumber="28" />
   <interval begin="540.00" end="600.00" id="mainline_up_0_2" sampledSeconds="1054.54" nVehEntered="26" nVehLeft="26" nVehSeen="45" meanSpeed="16.05" meanTimeLoss="1.18" meanOccupancy="10.93" maxOccupancy="12.28" meanMaxJamLengthInVehicles="0.00" meanMaxJamLengthInMeters="0.00" maxJamLengthInVehicles="0" maxJamLengthInMeters="0.00" jamLengthInVehiclesSum="0" jamLengthInMetersSum="0.00" meanHaltingDuration="1.00" maxHaltingDuration="1.00" haltingDurationSum="1.00" meanIntervalHaltingDuration="1.00" maxIntervalHaltingDuration="1.00" intervalHaltingDurationSum="1.00" startedHalts="1.00" meanVehicleNumber="17.93" maxVehicleNumber="20" />
   <interval begin="540.00" end="600.00" id="mainline_up_1_2" sampledSeconds="1235.15" nVehEntered="38" nVehLeft="37" nVehSeen="59" meanSpeed="16.09" meanTimeLoss="1.18" meanOccupancy="12.81" maxOccupancy="15.70" meanMaxJamLengthInVehicles="0.00" meanMaxJamLengthInMeters="0.00" maxJamLengthInVehicles="0" maxJamLengthInMeters="0.00" jamLengthInVehiclesSum="0" jamLengthInMetersSum="0.00" meanHaltingDuration="0.00" maxHaltingDuration="0.00" haltingDurationSum="0.00" meanIntervalHaltingDuration="0.00" maxIntervalHaltingDuration="0.00" intervalHaltingDurationSum="0.00" startedHalts="0.00" meanVehicleNumber="20.98" maxVehicleNumber="25" />
   <interval begin="540.00" end="600.00" id="mainline_up_2_2" sampledSeconds="1226.94" nVehEntered="30" nVehLeft="29" nVehSeen="53" meanSpeed="16.31" meanTimeLoss="1.20" meanOccupancy="12.77" maxOccupancy="15.70" meanMaxJamLengthInVehicles="0.00" meanMaxJamLengthInMeters="0.00" maxJamLengthInVehicles="0" maxJamLengthInMeters="0.00" jamLengthInVehiclesSum="0" jamLengthInMetersSum="0.00" meanHaltingDuration="0.00" maxHaltingDuration="0.00" haltingDurationSum="0.00" meanIntervalHaltingDuration="0.00" maxIntervalHaltingDuration="0.00" intervalHaltingDurationSum="0.00" startedHalts="0.00" meanVehicleNumber="20.82" maxVehicleNumber="25" />
   <interval begin="600.00" end="660.00" id="mainline_up_0_2" sampledSeconds="1195.48" nVehEntered="29" nVehLeft="27" nVehSeen="48" meanSpeed="16.27" meanTimeLoss="1.04" meanOccupancy="12.43" maxOccupancy="13.19" meanMaxJamLengthInVehicles="0.00" meanMaxJamLengthInMeters="0.00" maxJamLengthInVehicles="0" maxJamLengthInMeters="0.00" jamLengthInVehiclesSum="0" jamLengthInMetersSum="0.00" meanHaltingDuration="0.00" maxHaltingDuration="0.00" haltingDurationSum="0.00" meanIntervalHaltingDuration="0.00" maxIntervalHaltingDuration="0.00" intervalHaltingDurationSum="0.00" startedHalts="0.00" meanVehicleNumber="20.33" maxVehicleNumber="21" />
   <interval begin="600.00" end="660.00" id="mainline_up_1_2" sampledSeconds="1361.96" nVehEntered="34" nVehLeft="31" nVehSeen="56" meanSpeed="16.30" meanTimeLoss="1.12" meanOccupancy="14.20" maxOccupancy="16.33" meanMaxJamLengthInVehicles="0.00" meanMaxJamLengthInMeters="0.00" maxJamLengthInVehicles="0" maxJamLengthInMeters="0.00" jamLengthInVehiclesSum="0" jamLengthInMetersSum="0.00" meanHaltingDuration="0.00" maxHaltingDuration="0.00" haltingDurationSum="0.00" meanIntervalHaltingDuration="0.00" maxIntervalHaltingDuration="0.00" intervalHaltingDurationSum="0.00" startedHalts="0.00" meanVehicleNumber="23.13" maxVehicleNumber="27" />
   <interval begin="600.00" end="660.00" id="mainline_up_2_2" sampledSeconds="1457.36" nVehEntered="34" nVehLeft="30" nVehSeen="58" meanSpeed="16.35" meanTimeLoss="1.12" meanOccupancy="15.18" maxOccupancy="17.59" meanMaxJamLengthInVehicles="0.00" meanMaxJamLengthInMeters="0.00" maxJamLengthInVehicles="0" maxJamLengthInMeters="0.00" jamLengthInVehiclesSum="0" jamLengthInMetersSum="0.00" meanHaltingDuration="0.00" maxHaltingDuration="0.00" haltingDurationSum="0.00" meanIntervalHaltingDuration="0.00" maxIntervalHaltingDuration="0.00" intervalHaltingDurationSum="0.00" startedHalts="0.00" meanVehicleNumber="24.80" maxVehicleNumber="29" />
   <interval begin="660.00" end="720.00" id="mainline_up_0_2" sampledSeconds="1160.53" nVehEntered="34" nVehLeft="32" nVehSeen="55" meanSpeed="15.83" meanTimeLoss="1.23" meanOccupancy="12.01" maxOccupancy="14.45" meanMaxJamLengthInVehicles="0.00" meanMaxJamLengthInMeters="0.00" maxJamLengthInVehicles="0" maxJamLengthInMeters="0.00" jamLengthInVehiclesSum="0" jamLengthInMetersSum="0.00" meanHaltingDuration="0.00" maxHaltingDuration="0.00" haltingDurationSum="0.00" meanIntervalHaltingDuration="0.00" maxIntervalHaltingDuration="0.00" intervalHaltingDurationSum="0.00" startedHalts="0.00" meanVehicleNumber="19.62" maxVehicleNumber="24" />
   <interval begin="660.00" end="720.00" id="mainline_up_1_2" sampledSeconds="1275.47" nVehEntered="47" nVehLeft="50" nVehSeen="72" meanSpeed="16.16" meanTimeLoss="0.95" meanOccupancy="13.25" maxOccupancy="15.70" meanMaxJamLengthInVehicles="0.00" meanMaxJamLengthInMeters="0.00" maxJamLengthInVehicles="0" maxJamLengthInMeters="0.00" jamLengthInVehiclesSum="0" jamLengthInMetersSum="0.00" meanHaltingDuration="0.00" maxHaltingDuration="0.00" haltingDurationSum="0.00" meanIntervalHaltingDuration="0.00" maxIntervalHaltingDuration="0.00" intervalHaltingDurationSum="0.00" startedHalts="0.00" meanVehicleNumber="21.70" maxVehicleNumber="26" />
   <interval begin="660.00" end="720.00" id="mainline_up_2_2" sampledSeconds="1415.68" nVehEntered="38" nVehLeft="44" nVehSeen="66" meanSpeed="16.40" meanTimeLoss="1.00" meanOccupancy="14.75" maxOccupancy="17.59" meanMaxJamLengthInVehicles="0.00" meanMaxJamLengthInMeters="0.00" maxJamLengthInVehicles="0" maxJamLengthInMeters="0.00" jamLengthInVehiclesSum="0" jamLengthInMetersSum="0.00" meanHaltingDuration="0.00" maxHaltingDuration="0.00" haltingDurationSum="0.00" meanIntervalHaltingDuration="0.00" maxIntervalHaltingDuration="0.00" intervalHaltingDurationSum="0.00" startedHalts="0.00" meanVehicleNumber="24.13" maxVehicleNumber="29" />
   <interval begin="720.00" end="780.00" id="mainline_up_0_2" sampledSeconds="1257.13" nVehEntered="25" nVehLeft="29" nVehSeen="48" meanSpeed="14.85" meanTimeLoss="4.26" meanOccupancy="13.05" maxOccupancy="15.02" meanMaxJamLengthInVehicles="0.12" meanMaxJamLengthInMeters="0.50" maxJamLengthInVehicles="1" maxJamLengthInMeters="5.00" jamLengthInVehiclesSum="7" jamLengthInMetersSum="30.02" meanHaltingDuration="1.58" maxHaltingDuration="2.00" haltingDurationSum="19.00" meanIntervalHaltingDuration="1.58" maxIntervalHaltingDuration="2.00" intervalHaltingDurationSum="19.00" startedHalts="12.00" meanVehicleNumber="21.28" maxVehicleNumber="24" />
   <interval begin="720.00" end="780.00" id="mainline_up_1_2" sampledSeconds="1366.43" nVehEntered="43" nVehLeft="43" nVehSeen="65" meanSpeed="16.10" meanTimeLoss="2.35" meanOccupancy="14.17" maxOccupancy="16.96" meanMaxJamLengthInVehicles="0.00" meanMaxJamLengthInMeters="0.00" maxJamLengthInVehicles="0" maxJamLengthInMeters="0.00" jamLengthInVehiclesSum="0" jamLengthInMetersSum="0.00" meanHaltingDuration="0.00" maxHaltingDuration="0.00" haltingDurationSum="0.00" meanIntervalHaltingDuration="0.00" maxIntervalHaltingDuration="0.00" intervalHaltingDurationSum="0.00" startedHalts="0.00" meanVehicleNumber="23.25" maxVehicleNumber="28" />
   <interval begin="720.00" end="780.00" id="mainline_up_2_2" sampledSeconds="1486.24" nVehEntered="38" nVehLeft="34" nVehSeen="60" meanSpeed="17.02" meanTimeLoss="1.76" meanOccupancy="15.49" maxOccupancy="16.96" meanMaxJamLengthInVehicles="0.00" meanMaxJamLengthInMeters="0.00" maxJamLengthInVehicles="0" maxJamLengthInMeters="0.00" jamLengthInVehiclesSum="0" jamLengthInMetersSum="0.00" meanHaltingDuration="0.00" maxHaltingDuration="0.00" haltingDurationSum="0.00" meanIntervalHaltingDuration="0.00" maxIntervalHaltingDuration="0.00" intervalHaltingDurationSum="0.00" startedHalts="0.00" meanVehicleNumber="25.33" maxVehicleNumber="28" />
   <interval begin="780.00" end="840.00" id="mainline_up_0_2" sampledSeconds="1055.40" nVehEntered="28" nVehLeft="28" nVehSeen="47" meanSpeed="14.92" meanTimeLoss="2.63" meanOccupancy="10.91" maxOccupancy="13.19" meanMaxJamLengthInVehicles="0.00" meanMaxJamLengthInMeters="0.00" maxJamLengthInVehicles="0" maxJamLengthInMeters="0.00" jamLengthInVehiclesSum="0" jamLengthInMetersSum="0.00" meanHaltingDuration="0.00" maxHaltingDuration="0.00" haltingDurationSum="0.00" meanIntervalHaltingDuration="0.00" maxIntervalHaltingDuration="0.00" intervalHaltingDurationSum="0.00" startedHalts="0.00" meanVehicleNumber="17.87" maxVehicleNumber="21" />
   <interval begin="780.00" end="840.00" id="mainline_up_1_2" sampledSeconds="1267.30" nVehEntered="42" nVehLeft="48" nVehSeen="64" meanSpeed="15.99" meanTimeLoss="1.24" meanOccupancy="13.15" maxOccupancy="15.08" meanMaxJamLengthInVehicles="0.00" meanMaxJamLengthInMeters="0.00" maxJamLengthInVehicles="0" maxJamLengthInMeters="0.00" jamLengthInVehiclesSum="0" jamLengthInMetersSum="0.00" meanHaltingDuration="0.00" maxHaltingDuration="0.00" haltingDurationSum="0.00" meanIntervalHaltingDuration="0.00" maxIntervalHaltingDuration="0.00" intervalHaltingDurationSum="0.00" startedHalts="0.00" meanVehicleNumber="21.58" maxVehicleNumber="25" />
   <interval begin="780.00" end="840.00" id="mainline_up_2_2" sampledSeconds="1493.65" nVehEntered="37" nVehLeft="39" nVehSeen="63" meanSpeed="16.36" meanTimeLoss="1.10" meanOccupancy="15.56" maxOccupancy="16.96" meanMaxJamLengthInVehicles="0.00" meanMaxJamLengthInMeters="0.00" maxJamLengthInVehicles="0" maxJamLengthInMeters="0.00" jamLengthInVehiclesSum="0" jamLengthInMetersSum="0.00" meanHaltingDuration="0.00" maxHaltingDuration="0.00" haltingDurationSum="0.00" meanIntervalHaltingDuration="0.00" maxIntervalHaltingDuration="0.00" intervalHaltingDurationSum="0.00" startedHalts="0.00" meanVehicleNumber="25.38" maxVehicleNumber="27" />
   <interval begin="840.00" end="900.00" id="mainline_up_0_2" sampledSeconds="1192.51" nVehEntered="27" nVehLeft="27" nVehSeen="46" meanSpeed="15.13" meanTimeLoss="1.30" meanOccupancy="12.38" maxOccupancy="14.45" meanMaxJamLengthInVehicles="0.00" meanMaxJamLengthInMeters="0.00" maxJamLengthInVehicles="0" maxJamLengthInMeters="0.00" jamLengthInVehiclesSum="0" jamLengthInMetersSum="0.00" meanHaltingDuration="0.00" maxHaltingDuration="0.00" haltingDurationSum="0.00" meanIntervalHaltingDuration="0.00" maxIntervalHaltingDuration="0.00" intervalHaltingDurationSum="0.00" startedHalts="0.00" meanVehicleNumber="20.20" maxVehicleNumber="23" />
   <interval begin="840.00" end="900.00" id="mainline_up_1_2" sampledSeconds="1335.28" nVehEntered="47" nVehLeft="39" nVehSeen="63" meanSpeed="15.12" meanTimeLoss="1.31" meanOccupancy="13.87" maxOccupancy="16.33" meanMaxJamLengthInVehicles="0.00" meanMaxJamLengthInMeters="0.00" maxJamLengthInVehicles="0" maxJamLengthInMeters="0.00" jamLengthInVehiclesSum="0" jamLengthInMetersSum="0.00" meanHaltingDuration="0.00" maxHaltingDuration="0.00" haltingDurationSum="0.00" meanIntervalHaltingDuration="0.00" maxIntervalHaltingDuration="0.00" intervalHaltingDurationSum="0.00" startedHalts="0.00" meanVehicleNumber="22.70" maxVehicleNumber="27" />
   <interval begin="840.00" end="900.00" id="mainline_up_2_2" sampledSeconds="1307.50" nVehEntered="31" nVehLeft="32" nVehSeen="55" meanSpeed="15.22" meanTimeLoss="1.66" meanOccupancy="13.66" maxOccupancy="15.70" meanMaxJamLengthInVehicles="0.00" meanMaxJamLengthInMeters="0.00" maxJamLengthInVehicles="0" maxJamLengthInMeters="0.00" jamLengthInVehiclesSum="0" jamLengthInMetersSum="0.00" meanHaltingDuration="0.00" maxHaltingDuration="0.00" haltingDurationSum="0.00" meanIntervalHaltingDuration="0.00" maxIntervalHaltingDuration="0.00" intervalHaltingDurationSum="0.00" startedHalts="0.00" meanVehicleNumber="22.28" maxVehicleNumber="26" />
