<?xml version="1.0" encoding="UTF-8"?>

<!-- generated on 03/04/19 12:18:03 by Eclipse SUMO Version 1.0.1
<configuration xmlns:xsi="http://www.w3.org/2001/XMLSchema-instance" xsi:noNamespaceSchemaLocation="http://sumo.dlr.de/xsd/sumoConfiguration.xsd">

    <input>
        <net-file value="./Project/ramp.net.xml"/>
        <route-files value="./Project/ramp.rou.xml"/>
        <additional-files value="./Project/ramp.add.xml"/>
    </input>

    <time>
        <begin value="0"/>
    </time>

    <report>
        <verbose value="true"/>
        <no-step-log value="true"/>
    </report>

    <traci_server>
        <remote-port value="17271"/>
    </traci_server>

    <random_number>
        <seed value="1958417909"/>
    </random_number>

    <gui_only>
        <quit-on-end value="true"/>
        <start value="true"/>
    </gui_only>

</configuration>
-->

<detector xmlns:xsi="http://www.w3.org/2001/XMLSchema-instance" xsi:noNamespaceSchemaLocation="http://sumo.dlr.de/xsd/det_e2_file.xsd">
   <interval begin="0.00" end="60.00" id="mainline_up_0_2" sampledSeconds="270.03" nVehEntered="17" nVehLeft="4" nVehSeen="17" meanSpeed="21.20" meanTimeLoss="0.58" meanOccupancy="1.15" maxOccupancy="3.50" meanMaxJamLengthInVehicles="0.00" meanMaxJamLengthInMeters="0.00" maxJamLengthInVehicles="0" maxJamLengthInMeters="0.00" jamLengthInVehiclesSum="0" jamLengthInMetersSum="0.00" meanHaltingDuration="0.00" maxHaltingDuration="0.00" haltingDurationSum="0.00" meanIntervalHaltingDuration="0.00" maxIntervalHaltingDuration="0.00" intervalHaltingDurationSum="0.00" startedHalts="0.00" meanVehicleNumber="4.62" maxVehicleNumber="14" />
   <interval begin="0.00" end="60.00" id="mainline_up_1_2" sampledSeconds="296.62" nVehEntered="22" nVehLeft="6" nVehSeen="22" meanSpeed="21.84" meanTimeLoss="0.75" meanOccupancy="1.26" maxOccupancy="3.94" meanMaxJamLengthInVehicles="0.00" meanMaxJamLengthInMeters="0.00" maxJamLengthInVehicles="0" maxJamLengthInMeters="0.00" jamLengthInVehiclesSum="0" jamLengthInMetersSum="0.00" meanHaltingDuration="0.00" maxHaltingDuration="0.00" haltingDurationSum="0.00" meanIntervalHaltingDuration="0.00" maxIntervalHaltingDuration="0.00" intervalHaltingDurationSum="0.00" startedHalts="0.00" meanVehicleNumber="5.08" maxVehicleNumber="16" />
   <interval begin="0.00" end="60.00" id="mainline_up_2_2" sampledSeconds="155.27" nVehEntered="12" nVehLeft="1" nVehSeen="12" meanSpeed="22.95" meanTimeLoss="0.48" meanOccupancy="0.66" maxOccupancy="2.64" meanMaxJamLengthInVehicles="0.00" meanMaxJamLengthInMeters="0.00" maxJamLengthInVehicles="0" maxJamLengthInMeters="0.00" jamLengthInVehiclesSum="0" jamLengthInMetersSum="0.00" meanHaltingDuration="0.00" maxHaltingDuration="0.00" haltingDurationSum="0.00" meanIntervalHaltingDuration="0.00" maxIntervalHaltingDuration="0.00" intervalHaltingDurationSum="0.00" startedHalts="0.00" meanVehicleNumber="2.65" maxVehicleNumber="11" />
   <interval begin="60.00" end="120.00" id="mainline_up_0_2" sampledSeconds="1554.26" nVehEntered="37" nVehLeft="23" nVehSeen="50" meanSpeed="20.12" meanTimeLoss="1.99" meanOccupancy="6.49" maxOccupancy="8.50" meanMaxJamLengthInVehicles="0.00" meanMaxJamLengthInMeters="0.00" maxJamLengthInVehicles="0" maxJamLengthInMeters="0.00" jamLengthInVehiclesSum="0" jamLengthInMetersSum="0.00" meanHaltingDuration="0.00" maxHaltingDuration="0.00" haltingDurationSum="0.00" meanIntervalHaltingDuration="0.00" maxIntervalHaltingDuration="0.00" intervalHaltingDurationSum="0.00" startedHalts="0.00" meanVehicleNumber="26.13" maxVehicleNumber="34" />
   <interval begin="60.00" end="120.00" id="mainline_up_1_2" sampledSeconds="1470.58" nVehEntered="52" nVehLeft="30" nVehSeen="68" meanSpeed="20.38" meanTimeLoss="1.50" meanOccupancy="6.17" maxOccupancy="9.50" meanMaxJamLengthInVehicles="0.00" meanMaxJamLengthInMeters="0.00" maxJamLengthInVehicles="0" maxJamLengthInMeters="0.00" jamLengthInVehiclesSum="0" jamLengthInMetersSum="0.00" meanHaltingDuration="0.00" maxHaltingDuration="0.00" haltingDurationSum="0.00" meanIntervalHaltingDuration="0.00" maxIntervalHaltingDuration="0.00" intervalHaltingDurationSum="0.00" startedHalts="0.00" meanVehicleNumber="24.77" maxVehicleNumber="38" />
   <interval begin="60.00" end="120.00" id="mainline_up_2_2" sampledSeconds="1424.12" nVehEntered="36" nVehLeft="9" nVehSeen="47" meanSpeed="21.57" meanTimeLoss="1.85" meanOccupancy="5.97" maxOccupancy="9.50" meanMaxJamLengthInVehicles="0.00" meanMaxJamLengthInMeters="0.00" maxJamLengthInVehicles="0" maxJamLengthInMeters="0.00" jamLengthInVehiclesSum="0" jamLengthInMetersSum="0.00" meanHaltingDuration="0.00" maxHaltingDuration="0.00" haltingDurationSum="0.00" meanIntervalHaltingDuration="0.00" maxIntervalHaltingDuration="0.00" intervalHaltingDurationSum="0.00" startedHalts="0.00" meanVehicleNumber="23.93" maxVehicleNumber="38" />
   <interval begin="120.00" end="180.00" id="mainline_up_0_2" sampledSeconds="1968.21" nVehEntered="31" nVehLeft="20" nVehSeen="58" meanSpeed="18.41" meanTimeLoss="3.87" meanOccupancy="8.20" maxOccupancy="9.75" meanMaxJamLengthInVehicles="0.00" meanMaxJamLengthInMeters="0.00" maxJamLengthInVehicles="0" maxJamLengthInMeters="0.00" jamLengthInVehiclesSum="0" jamLengthInMetersSum="0.00" meanHaltingDuration="0.00" maxHaltingDuration="0.00" haltingDurationSum="0.00" meanIntervalHaltingDuration="0.00" maxIntervalHaltingDuration="0.00" intervalHaltingDurationSum="0.00" startedHalts="0.00" meanVehicleNumber="33.07" maxVehicleNumber="39" />
   <interval begin="120.00" end="180.00" id="mainline_up_1_2" sampledSeconds="2646.78" nVehEntered="44" nVehLeft="37" nVehSeen="82" meanSpeed="19.07" meanTimeLoss="3.67" meanOccupancy="11.02" maxOccupancy="12.25" meanMaxJamLengthInVehicles="0.00" meanMaxJamLengthInMeters="0.00" maxJamLengthInVehicles="0" maxJamLengthInMeters="0.00" jamLengthInVehiclesSum="0" jamLengthInMetersSum="0.00" meanHaltingDuration="0.00" maxHaltingDuration="0.00" haltingDurationSum="0.00" meanIntervalHaltingDuration="0.00" maxIntervalHaltingDuration="0.00" intervalHaltingDurationSum="0.00" startedHalts="0.00" meanVehicleNumber="44.52" maxVehicleNumber="49" />
   <interval begin="120.00" end="180.00" id="mainline_up_2_2" sampledSeconds="2867.55" nVehEntered="38" nVehLeft="24" nVehSeen="76" meanSpeed="20.30" meanTimeLoss="4.01" meanOccupancy="11.95" maxOccupancy="13.00" meanMaxJamLengthInVehicles="0.00" meanMaxJamLengthInMeters="0.00" maxJamLengthInVehicles="0" maxJamLengthInMeters="0.00" jamLengthInVehiclesSum="0" jamLengthInMetersSum="0.00" meanHaltingDuration="0.00" maxHaltingDuration="0.00" haltingDurationSum="0.00" meanIntervalHaltingDuration="0.00" maxIntervalHaltingDuration="0.00" intervalHaltingDurationSum="0.00" startedHalts="0.00" meanVehicleNumber="48.20" maxVehicleNumber="53" />
   <interval begin="180.00" end="240.00" id="mainline_up_0_2" sampledSeconds="2664.80" nVehEntered="46" nVehLeft="31" nVehSeen="84" meanSpeed="14.45" meanTimeLoss="2.84" meanOccupancy="11.08" maxOccupancy="13.50" meanMaxJamLengthInVehicles="0.00" meanMaxJamLengthInMeters="0.00" maxJamLengthInVehicles="0" maxJamLengthInMeters="0.00" jamLengthInVehiclesSum="0" jamLengthInMetersSum="0.00" meanHaltingDuration="0.00" maxHaltingDuration="0.00" haltingDurationSum="0.00" meanIntervalHaltingDuration="0.00" maxIntervalHaltingDuration="0.00" intervalHaltingDurationSum="0.00" startedHalts="0.00" meanVehicleNumber="44.75" maxVehicleNumber="55" />
   <interval begin="180.00" end="240.00" id="mainline_up_1_2" sampledSeconds="2860.85" nVehEntered="69" nVehLeft="57" nVehSeen="114" meanSpeed="15.07" meanTimeLoss="2.59" meanOccupancy="11.90" maxOccupancy="14.25" meanMaxJamLengthInVehicles="0.00" meanMaxJamLengthInMeters="0.00" maxJamLengthInVehicles="0" maxJamLengthInMeters="0.00" jamLengthInVehiclesSum="0" jamLengthInMetersSum="0.00" meanHaltingDuration="0.00" maxHaltingDuration="0.00" haltingDurationSum="0.00" meanIntervalHaltingDuration="0.00" maxIntervalHaltingDuration="0.00" intervalHaltingDurationSum="0.00" startedHalts="0.00" meanVehicleNumber="48.10" maxVehicleNumber="57" />
   <interval begin="180.00" end="240.00" id="mainline_up_2_2" sampledSeconds="2825.70" nVehEntered="38" nVehLeft="47" nVehSeen="90" meanSpeed="15.75" meanTimeLoss="3.28" meanOccupancy="11.77" maxOccupancy="13.75" meanMaxJamLengthInVehicles="0.00" meanMaxJamLengthInMeters="0.00" maxJamLengthInVehicles="0" maxJamLengthInMeters="0.00" jamLengthInVehiclesSum="0" jamLengthInMetersSum="0.00" meanHaltingDuration="0.00" maxHaltingDuration="0.00" haltingDurationSum="0.00" meanIntervalHaltingDuration="0.00" maxIntervalHaltingDuration="0.00" intervalHaltingDurationSum="0.00" startedHalts="0.00" meanVehicleNumber="47.57" maxVehicleNumber="55" />
   <interval begin="240.00" end="300.00" id="mainline_up_0_2" sampledSeconds="3246.42" nVehEntered="41" nVehLeft="35" nVehSeen="94" meanSpeed="15.46" meanTimeLoss="1.75" meanOccupancy="13.50" maxOccupancy="15.00" meanMaxJamLengthInVehicles="0.00" meanMaxJamLengthInMeters="0.00" maxJamLengthInVehicles="0" maxJamLengthInMeters="0.00" jamLengthInVehiclesSum="0" jamLengthInMetersSum="0.00" meanHaltingDuration="0.00" maxHaltingDuration="0.00" haltingDurationSum="0.00" meanIntervalHaltingDuration="0.00" maxIntervalHaltingDuration="0.00" intervalHaltingDurationSum="0.00" startedHalts="0.00" meanVehicleNumber="54.47" maxVehicleNumber="60" />
   <interval begin="240.00" end="300.00" id="mainline_up_1_2" sampledSeconds="3410.99" nVehEntered="54" nVehLeft="53" nVehSeen="111" meanSpeed="15.61" meanTimeLoss="1.55" meanOccupancy="14.17" maxOccupancy="14.75" meanMaxJamLengthInVehicles="0.00" meanMaxJamLengthInMeters="0.00" maxJamLengthInVehicles="0" maxJamLengthInMeters="0.00" jamLengthInVehiclesSum="0" jamLengthInMetersSum="0.00" meanHaltingDuration="0.00" maxHaltingDuration="0.00" haltingDurationSum="0.00" meanIntervalHaltingDuration="0.00" maxIntervalHaltingDuration="0.00" intervalHaltingDurationSum="0.00" startedHalts="0.00" meanVehicleNumber="57.27" maxVehicleNumber="59" />
   <interval begin="240.00" end="300.00" id="mainline_up_2_2" sampledSeconds="2695.00" nVehEntered="35" nVehLeft="33" nVehSeen="78" meanSpeed="16.01" meanTimeLoss="1.49" meanOccupancy="11.22" maxOccupancy="12.14" meanMaxJamLengthInVehicles="0.00" meanMaxJamLengthInMeters="0.00" maxJamLengthInVehicles="0" maxJamLengthInMeters="0.00" jamLengthInVehiclesSum="0" jamLengthInMetersSum="0.00" meanHaltingDuration="0.00" maxHaltingDuration="0.00" haltingDurationSum="0.00" meanIntervalHaltingDuration="0.00" maxIntervalHaltingDuration="0.00" intervalHaltingDurationSum="0.00" startedHalts="0.00" meanVehicleNumber="45.27" maxVehicleNumber="49" />
   <interval begin="300.00" end="360.00" id="mainline_up_0_2" sampledSeconds="3415.29" nVehEntered="46" nVehLeft="43" nVehSeen="105" meanSpeed="15.57" meanTimeLoss="1.95" meanOccupancy="14.19" maxOccupancy="15.50" meanMaxJamLengthInVehicles="0.00" meanMaxJamLengthInMeters="0.00" maxJamLengthInVehicles="0" maxJamLengthInMeters="0.00" jamLengthInVehiclesSum="0" jamLengthInMetersSum="0.00" meanHaltingDuration="0.00" maxHaltingDuration="0.00" haltingDurationSum="0.00" meanIntervalHaltingDuration="0.00" maxIntervalHaltingDuration="0.00" intervalHaltingDurationSum="0.00" startedHalts="0.00" meanVehicleNumber="57.33" maxVehicleNumber="63" />
   <interval begin="300.00" end="360.00" id="mainline_up_1_2" sampledSeconds="3384.39" nVehEntered="63" nVehLeft="61" nVehSeen="121" meanSpeed="15.86" meanTimeLoss="1.32" meanOccupancy="14.06" maxOccupancy="15.25" meanMaxJamLengthInVehicles="0.00" meanMaxJamLengthInMeters="0.00" maxJamLengthInVehicles="0" maxJamLengthInMeters="0.00" jamLengthInVehiclesSum="0" jamLengthInMetersSum="0.00" meanHaltingDuration="0.00" maxHaltingDuration="0.00" haltingDurationSum="0.00" meanIntervalHaltingDuration="0.00" maxIntervalHaltingDuration="0.00" intervalHaltingDurationSum="0.00" startedHalts="0.00" meanVehicleNumber="56.87" maxVehicleNumber="61" />
   <interval begin="300.00" end="360.00" id="mainline_up_2_2" sampledSeconds="3033.01" nVehEntered="38" nVehLeft="35" nVehSeen="83" meanSpeed="16.34" meanTimeLoss="1.39" meanOccupancy="12.64" maxOccupancy="13.50" meanMaxJamLengthInVehicles="0.00" meanMaxJamLengthInMeters="0.00" maxJamLengthInVehicles="0" maxJamLengthInMeters="0.00" jamLengthInVehiclesSum="0" jamLengthInMetersSum="0.00" meanHaltingDuration="0.00" maxHaltingDuration="0.00" haltingDurationSum="0.00" meanIntervalHaltingDuration="0.00" maxIntervalHaltingDuration="0.00" intervalHaltingDurationSum="0.00" startedHalts="0.00" meanVehicleNumber="50.90" maxVehicleNumber="55" />
   <interval begin="360.00" end="420.00" id="mainline_up_0_2" sampledSeconds="3907.34" nVehEntered="30" nVehLeft="31" nVehSeen="92" meanSpeed="13.59" meanTimeLoss="2.86" meanOccupancy="16.23" maxOccupancy="17.00" meanMaxJamLengthInVehicles="0.00" meanMaxJamLengthInMeters="0.00" maxJamLengthInVehicles="0" maxJamLengthInMeters="0.00" jamLengthInVehiclesSum="0" jamLengthInMetersSum="0.00" meanHaltingDuration="0.00" maxHaltingDuration="0.00" haltingDurationSum="0.00" meanIntervalHaltingDuration="0.00" maxIntervalHaltingDuration="0.00" intervalHaltingDurationSum="0.00" startedHalts="0.00" meanVehicleNumber="65.57" maxVehicleNumber="69" />
   <interval begin="360.00" end="420.00" id="mainline_up_1_2" sampledSeconds="3677.49" nVehEntered="40" nVehLeft="37" nVehSeen="100" meanSpeed="13.80" meanTimeLoss="2.46" meanOccupancy="15.29" maxOccupancy="16.50" meanMaxJamLengthInVehicles="0.00" meanMaxJamLengthInMeters="0.00" maxJamLengthInVehicles="0" maxJamLengthInMeters="0.00" jamLengthInVehiclesSum="0" jamLengthInMetersSum="0.00" meanHaltingDuration="0.00" maxHaltingDuration="0.00" haltingDurationSum="0.00" meanIntervalHaltingDuration="0.00" maxIntervalHaltingDuration="0.00" intervalHaltingDurationSum="0.00" startedHalts="0.00" meanVehicleNumber="61.77" maxVehicleNumber="67" />
   <interval begin="360.00" end="420.00" id="mainline_up_2_2" sampledSeconds="2981.29" nVehEntered="31" nVehLeft="26" nVehSeen="79" meanSpeed="14.15" meanTimeLoss="2.24" meanOccupancy="12.41" maxOccupancy="13.25" meanMaxJamLengthInVehicles="0.00" meanMaxJamLengthInMeters="0.00" maxJamLengthInVehicles="0" maxJamLengthInMeters="0.00" jamLengthInVehiclesSum="0" jamLengthInMetersSum="0.00" meanHaltingDuration="0.00" maxHaltingDuration="0.00" haltingDurationSum="0.00" meanIntervalHaltingDuration="0.00" maxIntervalHaltingDuration="0.00" intervalHaltingDurationSum="0.00" startedHalts="0.00" meanVehicleNumber="50.07" maxVehicleNumber="54" />
   <interval begin="420.00" end="480.00" id="mainline_up_0_2" sampledSeconds="3846.02" nVehEntered="37" nVehLeft="38" nVehSeen="98" meanSpeed="13.32" meanTimeLoss="4.96" meanOccupancy="15.98" maxOccupancy="17.25" meanMaxJamLengthInVehicles="0.08" meanMaxJamLengthInMeters="0.45" maxJamLengthInVehicles="2" maxJamLengthInMeters="14.26" jamLengthInVehiclesSum="5" jamLengthInMetersSum="27.25" meanHaltingDuration="5.00" maxHaltingDuration="5.00" haltingDurationSum="5.00" meanIntervalHaltingDuration="5.00" maxIntervalHaltingDuration="5.00" intervalHaltingDurationSum="5.00" startedHalts="3.00" meanVehicleNumber="64.45" maxVehicleNumber="70" />
   <interval begin="420.00" end="480.00" id="mainline_up_1_2" sampledSeconds="3845.24" nVehEntered="56" nVehLeft="54" nVehSeen="119" meanSpeed="13.76" meanTimeLoss="3.56" meanOccupancy="15.99" maxOccupancy="16.50" meanMaxJamLengthInVehicles="0.00" meanMaxJamLengthInMeters="0.00" maxJamLengthInVehicles="0" maxJamLengthInMeters="0.00" jamLengthInVehiclesSum="0" jamLengthInMetersSum="0.00" meanHaltingDuration="0.00" maxHaltingDuration="0.00" haltingDurationSum="0.00" meanIntervalHaltingDuration="0.00" maxIntervalHaltingDuration="0.00" intervalHaltingDurationSum="0.00" startedHalts="0.00" meanVehicleNumber="64.48" maxVehicleNumber="67" />
   <interval begin="420.00" end="480.00" id="mainline_up_2_2" sampledSeconds="3454.59" nVehEntered="42" nVehLeft="30" nVehSeen="95" meanSpeed="14.25" meanTimeLoss="3.74" meanOccupancy="14.37" maxOccupancy="16.28" meanMaxJamLengthInVehicles="0.00" meanMaxJamLengthInMeters="0.00" maxJamLengthInVehicles="0" maxJamLengthInMeters="0.00" jamLengthInVehiclesSum="0" jamLengthInMetersSum="0.00" meanHaltingDuration="0.00" maxHaltingDuration="0.00" haltingDurationSum="0.00" meanIntervalHaltingDuration="0.00" maxIntervalHaltingDuration="0.00" intervalHaltingDurationSum="0.00" startedHalts="0.00" meanVehicleNumber="57.97" maxVehicleNumber="66" />
   <interval begin="480.00" end="540.00" id="mainline_up_0_2" sampledSeconds="3682.96" nVehEntered="36" nVehLeft="36" nVehSeen="96" meanSpeed="13.89" meanTimeLoss="3.68" meanOccupancy="15.29" maxOccupancy="16.52" meanMaxJamLengthInVehicles="0.00" meanMaxJamLengthInMeters="0.00" maxJamLengthInVehicles="0" maxJamLengthInMeters="0.00" jamLengthInVehiclesSum="0" jamLengthInMetersSum="0.00" meanHaltingDuration="0.00" maxHaltingDuration="0.00" haltingDurationSum="0.00" meanIntervalHaltingDuration="0.00" maxIntervalHaltingDuration="0.00" intervalHaltingDurationSum="0.00" startedHalts="0.00" meanVehicleNumber="61.83" maxVehicleNumber="67" />
   <interval begin="480.00" end="540.00" id="mainline_up_1_2" sampledSeconds="3694.72" nVehEntered="47" nVehLeft="51" nVehSeen="112" meanSpeed="14.37" meanTimeLoss="2.65" meanOccupancy="15.35" maxOccupancy="16.50" meanMaxJamLengthInVehicles="0.00" meanMaxJamLengthInMeters="0.00" maxJamLengthInVehicles="0" maxJamLengthInMeters="0.00" jamLengthInVehiclesSum="0" jamLengthInMetersSum="0.00" meanHaltingDuration="0.00" maxHaltingDuration="0.00" haltingDurationSum="0.00" meanIntervalHaltingDuration="0.00" maxIntervalHaltingDuration="0.00" intervalHaltingDurationSum="0.00" startedHalts="0.00" meanVehicleNumber="62.00" maxVehicleNumber="67" />
   <interval begin="480.00" end="540.00" id="mainline_up_2_2" sampledSeconds="3579.35" nVehEntered="31" nVehLeft="39" nVehSeen="96" meanSpeed="14.66" meanTimeLoss="2.49" meanOccupancy="14.87" maxOccupancy="16.25" meanMaxJamLengthInVehicles="0.00" meanMaxJamLengthInMeters="0.00" maxJamLengthInVehicles="0" maxJamLengthInMeters="0.00" jamLengthInVehiclesSum="0" jamLengthInMetersSum="0.00" meanHaltingDuration="0.00" maxHaltingDuration="0.00" haltingDurationSum="0.00" meanIntervalHaltingDuration="0.00" maxIntervalHaltingDuration="0.00" intervalHaltingDurationSum="0.00" startedHalts="0.00" meanVehicleNumber="60.08" maxVehicleNumber="66" />
   <interval begin="540.00" end="600.00" id="mainline_up_0_2" sampledSeconds="3646.26" nVehEntered="41" nVehLeft="41" nVehSeen="101" meanSpeed="14.52" meanTimeLoss="5.48" meanOccupancy="15.14" maxOccupancy="16.00" meanMaxJamLengthInVehicles="0.00" meanMaxJamLengthInMeters="0.00" maxJamLengthInVehicles="0" maxJamLengthInMeters="0.00" jamLengthInVehiclesSum="0" jamLengthInMetersSum="0.00" meanHaltingDuration="1.00" maxHaltingDuration="1.00" haltingDurationSum="2.00" meanIntervalHaltingDuration="1.00" maxIntervalHaltingDuration="1.00" intervalHaltingDurationSum="2.00" startedHalts="2.00" meanVehicleNumber="61.15" maxVehicleNumber="64" />
   <interval begin="540.00" end="600.00" id="mainline_up_1_2" sampledSeconds="3788.66" nVehEntered="60" nVehLeft="59" nVehSeen="121" meanSpeed="15.32" meanTimeLoss="3.63" meanOccupancy="15.74" maxOccupancy="16.50" meanMaxJamLengthInVehicles="0.00" meanMaxJamLengthInMeters="0.00" maxJamLengthInVehicles="0" maxJamLengthInMeters="0.00" jamLengthInVehiclesSum="0" jamLengthInMetersSum="0.00" meanHaltingDuration="0.00" maxHaltingDuration="0.00" haltingDurationSum="0.00" meanIntervalHaltingDuration="0.00" maxIntervalHaltingDuration="0.00" intervalHaltingDurationSum="0.00" startedHalts="0.00" meanVehicleNumber="63.62" maxVehicleNumber="67" />
   <interval begin="540.00" end="600.00" id="mainline_up_2_2" sampledSeconds="3433.17" nVehEntered="37" nVehLeft="37" nVehSeen="94" meanSpeed="16.17" meanTimeLoss="3.10" meanOccupancy="14.28" maxOccupancy="15.25" meanMaxJamLengthInVehicles="0.00" meanMaxJamLengthInMeters="0.00" maxJamLengthInVehicles="0" maxJamLengthInMeters="0.00" jamLengthInVehiclesSum="0" jamLengthInMetersSum="0.00" meanHaltingDuration="0.00" maxHaltingDuration="0.00" haltingDurationSum="0.00" meanIntervalHaltingDuration="0.00" maxIntervalHaltingDuration="0.00" intervalHaltingDurationSum="0.00" startedHalts="0.00" meanVehicleNumber="57.65" maxVehicleNumber="61" />
   <interval begin="600.00" end="660.00" id="mainline_up_0_2" sampledSeconds="3773.30" nVehEntered="35" nVehLeft="33" nVehSeen="95" meanSpeed="13.04" meanTimeLoss="4.10" meanOccupancy="15.68" maxOccupancy="16.50" meanMaxJamLengthInVehicles="0.00" meanMaxJamLengthInMeters="0.00" maxJamLengthInVehicles="0" maxJamLengthInMeters="0.00" jamLengthInVehiclesSum="0" jamLengthInMetersSum="0.00" meanHaltingDuration="1.00" maxHaltingDuration="1.00" haltingDurationSum="4.00" meanIntervalHaltingDuration="1.00" maxIntervalHaltingDuration="1.00" intervalHaltingDurationSum="4.00" startedHalts="5.00" meanVehicleNumber="63.28" maxVehicleNumber="66" />
   <interval begin="600.00" end="660.00" id="mainline_up_1_2" sampledSeconds="3578.60" nVehEntered="51" nVehLeft="51" nVehSeen="113" meanSpeed="13.35" meanTimeLoss="3.00" meanOccupancy="14.86" maxOccupancy="16.00" meanMaxJamLengthInVehicles="0.00" meanMaxJamLengthInMeters="0.00" maxJamLengthInVehicles="0" maxJamLengthInMeters="0.00" jamLengthInVehiclesSum="0" jamLengthInMetersSum="0.00" meanHaltingDuration="0.00" maxHaltingDuration="0.00" haltingDurationSum="0.00" meanIntervalHaltingDuration="0.00" maxIntervalHaltingDuration="0.00" intervalHaltingDurationSum="0.00" startedHalts="0.00" meanVehicleNumber="60.10" maxVehicleNumber="65" />
   <interval begin="600.00" end="660.00" id="mainline_up_2_2" sampledSeconds="3429.83" nVehEntered="40" nVehLeft="39" nVehSeen="97" meanSpeed="13.50" meanTimeLoss="3.03" meanOccupancy="14.27" maxOccupancy="14.91" meanMaxJamLengthInVehicles="0.00" meanMaxJamLengthInMeters="0.00" maxJamLengthInVehicles="0" maxJamLengthInMeters="0.00" jamLengthInVehiclesSum="0" jamLengthInMetersSum="0.00" meanHaltingDuration="0.00" maxHaltingDuration="0.00" haltingDurationSum="0.00" meanIntervalHaltingDuration="0.00" maxIntervalHaltingDuration="0.00" intervalHaltingDurationSum="0.00" startedHalts="0.00" meanVehicleNumber="57.63" maxVehicleNumber="60" />
</detector>
