<?xml version="1.0" encoding="UTF-8"?>

<!-- generated on 03/06/19 19:32:41 by Eclipse SUMO Version 1.0.1
<configuration xmlns:xsi="http://www.w3.org/2001/XMLSchema-instance" xsi:noNamespaceSchemaLocation="http://sumo.dlr.de/xsd/sumoConfiguration.xsd">

    <input>
        <net-file value="./Project/ramp.net.xml"/>
        <route-files value="./Project/ramp.rou.xml"/>
        <additional-files value="./Project/ramp.add.xml"/>
    </input>

    <time>
        <begin value="0"/>
        <end value="10000"/>
    </time>

    <report>
        <verbose value="true"/>
        <no-step-log value="true"/>
    </report>

    <traci_server>
        <remote-port value="51701"/>
    </traci_server>

    <random_number>
        <seed value="1541282821"/>
    </random_number>

    <gui_only>
        <quit-on-end value="true"/>
        <start value="true"/>
    </gui_only>

</configuration>
-->

<detector xmlns:xsi="http://www.w3.org/2001/XMLSchema-instance" xsi:noNamespaceSchemaLocation="http://sumo.dlr.de/xsd/det_e2_file.xsd">
   <interval begin="0.00" end="60.00" id="mainline_up_0_2" sampledSeconds="307.50" nVehEntered="17" nVehLeft="2" nVehSeen="17" meanSpeed="21.29" meanTimeLoss="0.90" meanOccupancy="1.30" maxOccupancy="3.75" meanMaxJamLengthInVehicles="0.00" meanMaxJamLengthInMeters="0.00" maxJamLengthInVehicles="0" maxJamLengthInMeters="0.00" jamLengthInVehiclesSum="0" jamLengthInMetersSum="0.00" meanHaltingDuration="0.00" maxHaltingDuration="0.00" haltingDurationSum="0.00" meanIntervalHaltingDuration="0.00" maxIntervalHaltingDuration="0.00" intervalHaltingDurationSum="0.00" startedHalts="0.00" meanVehicleNumber="5.23" maxVehicleNumber="15" />
   <interval begin="0.00" end="60.00" id="mainline_up_1_2" sampledSeconds="260.70" nVehEntered="19" nVehLeft="7" nVehSeen="19" meanSpeed="21.50" meanTimeLoss="0.73" meanOccupancy="1.11" maxOccupancy="3.50" meanMaxJamLengthInVehicles="0.00" meanMaxJamLengthInMeters="0.00" maxJamLengthInVehicles="0" maxJamLengthInMeters="0.00" jamLengthInVehiclesSum="0" jamLengthInMetersSum="0.00" meanHaltingDuration="0.00" maxHaltingDuration="0.00" haltingDurationSum="0.00" meanIntervalHaltingDuration="0.00" maxIntervalHaltingDuration="0.00" intervalHaltingDurationSum="0.00" startedHalts="0.00" meanVehicleNumber="4.47" maxVehicleNumber="14" />
   <interval begin="0.00" end="60.00" id="mainline_up_2_2" sampledSeconds="211.56" nVehEntered="18" nVehLeft="5" nVehSeen="18" meanSpeed="23.68" meanTimeLoss="0.49" meanOccupancy="0.91" maxOccupancy="3.25" meanMaxJamLengthInVehicles="0.00" meanMaxJamLengthInMeters="0.00" maxJamLengthInVehicles="0" maxJamLengthInMeters="0.00" jamLengthInVehiclesSum="0" jamLengthInMetersSum="0.00" meanHaltingDuration="0.00" maxHaltingDuration="0.00" haltingDurationSum="0.00" meanIntervalHaltingDuration="0.00" maxIntervalHaltingDuration="0.00" intervalHaltingDurationSum="0.00" startedHalts="0.00" meanVehicleNumber="3.67" maxVehicleNumber="13" />
   <interval begin="60.00" end="120.00" id="mainline_up_0_2" sampledSeconds="1340.52" nVehEntered="32" nVehLeft="19" nVehSeen="47" meanSpeed="19.09" meanTimeLoss="2.69" meanOccupancy="5.60" maxOccupancy="7.00" meanMaxJamLengthInVehicles="0.00" meanMaxJamLengthInMeters="0.00" maxJamLengthInVehicles="0" maxJamLengthInMeters="0.00" jamLengthInVehiclesSum="0" jamLengthInMetersSum="0.00" meanHaltingDuration="0.00" maxHaltingDuration="0.00" haltingDurationSum="0.00" meanIntervalHaltingDuration="0.00" maxIntervalHaltingDuration="0.00" intervalHaltingDurationSum="0.00" startedHalts="0.00" meanVehicleNumber="22.55" maxVehicleNumber="28" />
   <interval begin="60.00" end="120.00" id="mainline_up_1_2" sampledSeconds="1515.96" nVehEntered="50" nVehLeft="23" nVehSeen="62" meanSpeed="19.72" meanTimeLoss="2.01" meanOccupancy="6.35" maxOccupancy="10.36" meanMaxJamLengthInVehicles="0.00" meanMaxJamLengthInMeters="0.00" maxJamLengthInVehicles="0" maxJamLengthInMeters="0.00" jamLengthInVehiclesSum="0" jamLengthInMetersSum="0.00" meanHaltingDuration="0.00" maxHaltingDuration="0.00" haltingDurationSum="0.00" meanIntervalHaltingDuration="0.00" maxIntervalHaltingDuration="0.00" intervalHaltingDurationSum="0.00" startedHalts="0.00" meanVehicleNumber="25.57" maxVehicleNumber="43" />
   <interval begin="60.00" end="120.00" id="mainline_up_2_2" sampledSeconds="1619.17" nVehEntered="37" nVehLeft="9" nVehSeen="50" meanSpeed="21.48" meanTimeLoss="2.58" meanOccupancy="6.80" maxOccupancy="10.25" meanMaxJamLengthInVehicles="0.00" meanMaxJamLengthInMeters="0.00" maxJamLengthInVehicles="0" maxJamLengthInMeters="0.00" jamLengthInVehiclesSum="0" jamLengthInMetersSum="0.00" meanHaltingDuration="0.00" maxHaltingDuration="0.00" haltingDurationSum="0.00" meanIntervalHaltingDuration="0.00" maxIntervalHaltingDuration="0.00" intervalHaltingDurationSum="0.00" startedHalts="0.00" meanVehicleNumber="27.25" maxVehicleNumber="41" />
   <interval begin="120.00" end="180.00" id="mainline_up_0_2" sampledSeconds="1845.48" nVehEntered="31" nVehLeft="26" nVehSeen="59" meanSpeed="18.00" meanTimeLoss="3.00" meanOccupancy="7.68" maxOccupancy="9.00" meanMaxJamLengthInVehicles="0.00" meanMaxJamLengthInMeters="0.00" maxJamLengthInVehicles="0" maxJamLengthInMeters="0.00" jamLengthInVehiclesSum="0" jamLengthInMetersSum="0.00" meanHaltingDuration="0.00" maxHaltingDuration="0.00" haltingDurationSum="0.00" meanIntervalHaltingDuration="0.00" maxIntervalHaltingDuration="0.00" intervalHaltingDurationSum="0.00" startedHalts="0.00" meanVehicleNumber="31.00" maxVehicleNumber="37" />
   <interval begin="120.00" end="180.00" id="mainline_up_1_2" sampledSeconds="2435.16" nVehEntered="49" nVehLeft="43" nVehSeen="88" meanSpeed="19.48" meanTimeLoss="2.91" meanOccupancy="10.14" maxOccupancy="11.50" meanMaxJamLengthInVehicles="0.00" meanMaxJamLengthInMeters="0.00" maxJamLengthInVehicles="0" maxJamLengthInMeters="0.00" jamLengthInVehiclesSum="0" jamLengthInMetersSum="0.00" meanHaltingDuration="0.00" maxHaltingDuration="0.00" haltingDurationSum="0.00" meanIntervalHaltingDuration="0.00" maxIntervalHaltingDuration="0.00" intervalHaltingDurationSum="0.00" startedHalts="0.00" meanVehicleNumber="40.90" maxVehicleNumber="47" />
   <interval begin="120.00" end="180.00" id="mainline_up_2_2" sampledSeconds="3052.28" nVehEntered="47" nVehLeft="32" nVehSeen="88" meanSpeed="20.32" meanTimeLoss="3.47" meanOccupancy="12.70" maxOccupancy="14.00" meanMaxJamLengthInVehicles="0.00" meanMaxJamLengthInMeters="0.00" maxJamLengthInVehicles="0" maxJamLengthInMeters="0.00" jamLengthInVehiclesSum="0" jamLengthInMetersSum="0.00" meanHaltingDuration="0.00" maxHaltingDuration="0.00" haltingDurationSum="0.00" meanIntervalHaltingDuration="0.00" maxIntervalHaltingDuration="0.00" intervalHaltingDurationSum="0.00" startedHalts="0.00" meanVehicleNumber="51.28" maxVehicleNumber="56" />
   <interval begin="180.00" end="240.00" id="mainline_up_0_2" sampledSeconds="2177.53" nVehEntered="40" nVehLeft="34" nVehSeen="73" meanSpeed="17.70" meanTimeLoss="3.99" meanOccupancy="9.06" maxOccupancy="10.00" meanMaxJamLengthInVehicles="0.00" meanMaxJamLengthInMeters="0.00" maxJamLengthInVehicles="0" maxJamLengthInMeters="0.00" jamLengthInVehiclesSum="0" jamLengthInMetersSum="0.00" meanHaltingDuration="0.00" maxHaltingDuration="0.00" haltingDurationSum="0.00" meanIntervalHaltingDuration="0.00" maxIntervalHaltingDuration="0.00" intervalHaltingDurationSum="0.00" startedHalts="0.00" meanVehicleNumber="36.57" maxVehicleNumber="41" />
   <interval begin="180.00" end="240.00" id="mainline_up_1_2" sampledSeconds="2758.84" nVehEntered="50" nVehLeft="49" nVehSeen="95" meanSpeed="18.59" meanTimeLoss="4.60" meanOccupancy="11.47" maxOccupancy="12.00" meanMaxJamLengthInVehicles="0.00" meanMaxJamLengthInMeters="0.00" maxJamLengthInVehicles="0" maxJamLengthInMeters="0.00" jamLengthInVehiclesSum="0" jamLengthInMetersSum="0.00" meanHaltingDuration="0.00" maxHaltingDuration="0.00" haltingDurationSum="0.00" meanIntervalHaltingDuration="0.00" maxIntervalHaltingDuration="0.00" intervalHaltingDurationSum="0.00" startedHalts="0.00" meanVehicleNumber="46.43" maxVehicleNumber="49" />
   <interval begin="180.00" end="240.00" id="mainline_up_2_2" sampledSeconds="3274.72" nVehEntered="34" nVehLeft="38" nVehSeen="90" meanSpeed="19.34" meanTimeLoss="4.88" meanOccupancy="13.61" maxOccupancy="14.55" meanMaxJamLengthInVehicles="0.00" meanMaxJamLengthInMeters="0.00" maxJamLengthInVehicles="0" maxJamLengthInMeters="0.00" jamLengthInVehiclesSum="0" jamLengthInMetersSum="0.00" meanHaltingDuration="0.00" maxHaltingDuration="0.00" haltingDurationSum="0.00" meanIntervalHaltingDuration="0.00" maxIntervalHaltingDuration="0.00" intervalHaltingDurationSum="0.00" startedHalts="0.00" meanVehicleNumber="55.12" maxVehicleNumber="59" />
   <interval begin="240.00" end="300.00" id="mainline_up_0_2" sampledSeconds="2295.12" nVehEntered="28" nVehLeft="29" nVehSeen="67" meanSpeed="17.99" meanTimeLoss="4.70" meanOccupancy="9.55" maxOccupancy="10.07" meanMaxJamLengthInVehicles="0.00" meanMaxJamLengthInMeters="0.00" maxJamLengthInVehicles="0" maxJamLengthInMeters="0.00" jamLengthInVehiclesSum="0" jamLengthInMetersSum="0.00" meanHaltingDuration="0.00" maxHaltingDuration="0.00" haltingDurationSum="0.00" meanIntervalHaltingDuration="0.00" maxIntervalHaltingDuration="0.00" intervalHaltingDurationSum="0.00" startedHalts="0.00" meanVehicleNumber="38.53" maxVehicleNumber="41" />
   <interval begin="240.00" end="300.00" id="mainline_up_1_2" sampledSeconds="2921.85" nVehEntered="48" nVehLeft="44" nVehSeen="94" meanSpeed="18.52" meanTimeLoss="4.83" meanOccupancy="12.15" maxOccupancy="13.76" meanMaxJamLengthInVehicles="0.00" meanMaxJamLengthInMeters="0.00" maxJamLengthInVehicles="0" maxJamLengthInMeters="0.00" jamLengthInVehiclesSum="0" jamLengthInMetersSum="0.00" meanHaltingDuration="0.00" maxHaltingDuration="0.00" haltingDurationSum="0.00" meanIntervalHaltingDuration="0.00" maxIntervalHaltingDuration="0.00" intervalHaltingDurationSum="0.00" startedHalts="0.00" meanVehicleNumber="49.13" maxVehicleNumber="56" />
   <interval begin="240.00" end="300.00" id="mainline_up_2_2" sampledSeconds="3313.66" nVehEntered="41" nVehLeft="35" nVehSeen="93" meanSpeed="19.16" meanTimeLoss="5.47" meanOccupancy="13.78" maxOccupancy="15.00" meanMaxJamLengthInVehicles="0.00" meanMaxJamLengthInMeters="0.00" maxJamLengthInVehicles="0" maxJamLengthInMeters="0.00" jamLengthInVehiclesSum="0" jamLengthInMetersSum="0.00" meanHaltingDuration="0.00" maxHaltingDuration="0.00" haltingDurationSum="0.00" meanIntervalHaltingDuration="0.00" maxIntervalHaltingDuration="0.00" intervalHaltingDurationSum="0.00" startedHalts="0.00" meanVehicleNumber="55.75" maxVehicleNumber="61" />
   <interval begin="300.00" end="360.00" id="mainline_up_0_2" sampledSeconds="3285.12" nVehEntered="51" nVehLeft="27" nVehSeen="89" meanSpeed="11.02" meanTimeLoss="1.96" meanOccupancy="13.65" maxOccupancy="15.61" meanMaxJamLengthInVehicles="0.05" meanMaxJamLengthInMeters="0.18" maxJamLengthInVehicles="1" maxJamLengthInMeters="5.00" jamLengthInVehiclesSum="3" jamLengthInMetersSum="10.64" meanHaltingDuration="2.00" maxHaltingDuration="3.00" haltingDurationSum="6.00" meanIntervalHaltingDuration="2.00" maxIntervalHaltingDuration="3.00" intervalHaltingDurationSum="6.00" startedHalts="3.00" meanVehicleNumber="55.08" maxVehicleNumber="63" />
   <interval begin="300.00" end="360.00" id="mainline_up_1_2" sampledSeconds="3315.82" nVehEntered="63" nVehLeft="53" nVehSeen="113" meanSpeed="11.08" meanTimeLoss="1.62" meanOccupancy="13.79" maxOccupancy="15.75" meanMaxJamLengthInVehicles="0.00" meanMaxJamLengthInMeters="0.00" maxJamLengthInVehicles="0" maxJamLengthInMeters="0.00" jamLengthInVehiclesSum="0" jamLengthInMetersSum="0.00" meanHaltingDuration="0.00" maxHaltingDuration="0.00" haltingDurationSum="0.00" meanIntervalHaltingDuration="0.00" maxIntervalHaltingDuration="0.00" intervalHaltingDurationSum="0.00" startedHalts="0.00" meanVehicleNumber="55.62" maxVehicleNumber="64" />
   <interval begin="300.00" end="360.00" id="mainline_up_2_2" sampledSeconds="2640.03" nVehEntered="33" nVehLeft="50" nVehSeen="91" meanSpeed="11.44" meanTimeLoss="1.58" meanOccupancy="10.97" maxOccupancy="14.25" meanMaxJamLengthInVehicles="0.00" meanMaxJamLengthInMeters="0.00" maxJamLengthInVehicles="0" maxJamLengthInMeters="0.00" jamLengthInVehiclesSum="0" jamLengthInMetersSum="0.00" meanHaltingDuration="0.00" maxHaltingDuration="0.00" haltingDurationSum="0.00" meanIntervalHaltingDuration="0.00" maxIntervalHaltingDuration="0.00" intervalHaltingDurationSum="0.00" startedHalts="0.00" meanVehicleNumber="44.37" maxVehicleNumber="58" />
   <interval begin="360.00" end="420.00" id="mainline_up_0_2" sampledSeconds="3967.81" nVehEntered="28" nVehLeft="21" nVehSeen="90" meanSpeed="10.93" meanTimeLoss="2.17" meanOccupancy="16.51" maxOccupancy="17.63" meanMaxJamLengthInVehicles="0.00" meanMaxJamLengthInMeters="0.00" maxJamLengthInVehicles="0" maxJamLengthInMeters="0.00" jamLengthInVehiclesSum="0" jamLengthInMetersSum="0.00" meanHaltingDuration="0.00" maxHaltingDuration="0.00" haltingDurationSum="0.00" meanIntervalHaltingDuration="0.00" maxIntervalHaltingDuration="0.00" intervalHaltingDurationSum="0.00" startedHalts="0.00" meanVehicleNumber="66.47" maxVehicleNumber="71" />
   <interval begin="360.00" end="420.00" id="mainline_up_1_2" sampledSeconds="4030.42" nVehEntered="37" nVehLeft="25" nVehSeen="97" meanSpeed="10.94" meanTimeLoss="2.06" meanOccupancy="16.78" maxOccupancy="18.25" meanMaxJamLengthInVehicles="0.00" meanMaxJamLengthInMeters="0.00" maxJamLengthInVehicles="0" maxJamLengthInMeters="0.00" jamLengthInVehiclesSum="0" jamLengthInMetersSum="0.00" meanHaltingDuration="0.00" maxHaltingDuration="0.00" haltingDurationSum="0.00" meanIntervalHaltingDuration="0.00" maxIntervalHaltingDuration="0.00" intervalHaltingDurationSum="0.00" startedHalts="0.00" meanVehicleNumber="67.53" maxVehicleNumber="73" />
   <interval begin="360.00" end="420.00" id="mainline_up_2_2" sampledSeconds="2895.49" nVehEntered="33" nVehLeft="17" nVehSeen="74" meanSpeed="11.11" meanTimeLoss="2.14" meanOccupancy="12.08" maxOccupancy="14.37" meanMaxJamLengthInVehicles="0.00" meanMaxJamLengthInMeters="0.00" maxJamLengthInVehicles="0" maxJamLengthInMeters="0.00" jamLengthInVehiclesSum="0" jamLengthInMetersSum="0.00" meanHaltingDuration="0.00" maxHaltingDuration="0.00" haltingDurationSum="0.00" meanIntervalHaltingDuration="0.00" maxIntervalHaltingDuration="0.00" intervalHaltingDurationSum="0.00" startedHalts="0.00" meanVehicleNumber="48.58" maxVehicleNumber="58" />
   <interval begin="420.00" end="480.00" id="mainline_up_0_2" sampledSeconds="4495.99" nVehEntered="32" nVehLeft="23" nVehSeen="101" meanSpeed="10.91" meanTimeLoss="2.08" meanOccupancy="18.70" maxOccupancy="20.00" meanMaxJamLengthInVehicles="0.03" meanMaxJamLengthInMeters="0.01" maxJamLengthInVehicles="1" maxJamLengthInMeters="0.71" jamLengthInVehiclesSum="2" jamLengthInMetersSum="0.71" meanHaltingDuration="0.00" maxHaltingDuration="0.00" haltingDurationSum="0.00" meanIntervalHaltingDuration="0.00" maxIntervalHaltingDuration="0.00" intervalHaltingDurationSum="0.00" startedHalts="1.00" meanVehicleNumber="75.25" maxVehicleNumber="80" />
   <interval begin="420.00" end="480.00" id="mainline_up_1_2" sampledSeconds="4763.12" nVehEntered="37" nVehLeft="28" nVehSeen="109" meanSpeed="10.93" meanTimeLoss="2.10" meanOccupancy="19.82" maxOccupancy="21.00" meanMaxJamLengthInVehicles="0.00" meanMaxJamLengthInMeters="0.00" maxJamLengthInVehicles="0" maxJamLengthInMeters="0.00" jamLengthInVehiclesSum="0" jamLengthInMetersSum="0.00" meanHaltingDuration="0.00" maxHaltingDuration="0.00" haltingDurationSum="0.00" meanIntervalHaltingDuration="0.00" maxIntervalHaltingDuration="0.00" intervalHaltingDurationSum="0.00" startedHalts="0.00" meanVehicleNumber="79.78" maxVehicleNumber="85" />
   <interval begin="420.00" end="480.00" id="mainline_up_2_2" sampledSeconds="3880.87" nVehEntered="28" nVehLeft="13" nVehSeen="85" meanSpeed="11.04" meanTimeLoss="2.23" meanOccupancy="16.18" maxOccupancy="18.03" meanMaxJamLengthInVehicles="0.00" meanMaxJamLengthInMeters="0.00" maxJamLengthInVehicles="0" maxJamLengthInMeters="0.00" jamLengthInVehiclesSum="0" jamLengthInMetersSum="0.00" meanHaltingDuration="0.00" maxHaltingDuration="0.00" haltingDurationSum="0.00" meanIntervalHaltingDuration="0.00" maxIntervalHaltingDuration="0.00" intervalHaltingDurationSum="0.00" startedHalts="0.00" meanVehicleNumber="64.97" maxVehicleNumber="73" />
   <interval begin="480.00" end="540.00" id="mainline_up_0_2" sampledSeconds="4844.70" nVehEntered="33" nVehLeft="29" nVehSeen="111" meanSpeed="10.68" meanTimeLoss="2.65" meanOccupancy="20.14" maxOccupancy="20.75" meanMaxJamLengthInVehicles="0.10" meanMaxJamLengthInMeters="0.60" maxJamLengthInVehicles="3" maxJamLengthInMeters="20.22" jamLengthInVehiclesSum="6" jamLengthInMetersSum="36.22" meanHaltingDuration="3.00" maxHaltingDuration="4.00" haltingDurationSum="9.00" meanIntervalHaltingDuration="3.00" maxIntervalHaltingDuration="4.00" intervalHaltingDurationSum="9.00" startedHalts="3.00" meanVehicleNumber="81.12" maxVehicleNumber="84" />
   <interval begin="480.00" end="540.00" id="mainline_up_1_2" sampledSeconds="4881.32" nVehEntered="39" nVehLeft="41" nVehSeen="120" meanSpeed="10.91" meanTimeLoss="2.12" meanOccupancy="20.29" maxOccupancy="20.84" meanMaxJamLengthInVehicles="0.00" meanMaxJamLengthInMeters="0.00" maxJamLengthInVehicles="0" maxJamLengthInMeters="0.00" jamLengthInVehiclesSum="0" jamLengthInMetersSum="0.00" meanHaltingDuration="0.00" maxHaltingDuration="0.00" haltingDurationSum="0.00" meanIntervalHaltingDuration="0.00" maxIntervalHaltingDuration="0.00" intervalHaltingDurationSum="0.00" startedHalts="0.00" meanVehicleNumber="81.72" maxVehicleNumber="84" />
   <interval begin="480.00" end="540.00" id="mainline_up_2_2" sampledSeconds="4497.92" nVehEntered="34" nVehLeft="30" nVehSeen="106" meanSpeed="11.04" meanTimeLoss="1.98" meanOccupancy="18.71" maxOccupancy="19.37" meanMaxJamLengthInVehicles="0.00" meanMaxJamLengthInMeters="0.00" maxJamLengthInVehicles="0" maxJamLengthInMeters="0.00" jamLengthInVehiclesSum="0" jamLengthInMetersSum="0.00" meanHaltingDuration="0.00" maxHaltingDuration="0.00" haltingDurationSum="0.00" meanIntervalHaltingDuration="0.00" maxIntervalHaltingDuration="0.00" intervalHaltingDurationSum="0.00" startedHalts="0.00" meanVehicleNumber="75.37" maxVehicleNumber="78" />
   <interval begin="540.00" end="600.00" id="mainline_up_0_2" sampledSeconds="5138.57" nVehEntered="33" nVehLeft="29" nVehSeen="115" meanSpeed="10.46" meanTimeLoss="7.48" meanOccupancy="21.35" maxOccupancy="22.35" meanMaxJamLengthInVehicles="2.03" meanMaxJamLengthInMeters="14.36" maxJamLengthInVehicles="5" maxJamLengthInMeters="38.62" jamLengthInVehiclesSum="138" jamLengthInMetersSum="951.96" meanHaltingDuration="3.37" maxHaltingDuration="8.00" haltingDurationSum="192.00" meanIntervalHaltingDuration="3.21" maxIntervalHaltingDuration="8.00" intervalHaltingDurationSum="183.00" startedHalts="57.00" meanVehicleNumber="86.03" maxVehicleNumber="90" />
   <interval begin="540.00" end="600.00" id="mainline_up_1_2" sampledSeconds="4753.51" nVehEntered="47" nVehLeft="46" nVehSeen="126" meanSpeed="11.64" meanTimeLoss="3.22" meanOccupancy="19.75" maxOccupancy="20.98" meanMaxJamLengthInVehicles="0.00" meanMaxJamLengthInMeters="0.00" maxJamLengthInVehicles="0" maxJamLengthInMeters="0.00" jamLengthInVehiclesSum="0" jamLengthInMetersSum="0.00" meanHaltingDuration="0.00" maxHaltingDuration="0.00" haltingDurationSum="0.00" meanIntervalHaltingDuration="0.00" maxIntervalHaltingDuration="0.00" intervalHaltingDurationSum="0.00" startedHalts="0.00" meanVehicleNumber="79.73" maxVehicleNumber="84" />
   <interval begin="540.00" end="600.00" id="mainline_up_2_2" sampledSeconds="4560.16" nVehEntered="36" nVehLeft="37" nVehSeen="112" meanSpeed="11.79" meanTimeLoss="3.12" meanOccupancy="18.96" maxOccupancy="19.73" meanMaxJamLengthInVehicles="0.00" meanMaxJamLengthInMeters="0.00" maxJamLengthInVehicles="0" maxJamLengthInMeters="0.00" jamLengthInVehiclesSum="0" jamLengthInMetersSum="0.00" meanHaltingDuration="0.00" maxHaltingDuration="0.00" haltingDurationSum="0.00" meanIntervalHaltingDuration="0.00" maxIntervalHaltingDuration="0.00" intervalHaltingDurationSum="0.00" startedHalts="0.00" meanVehicleNumber="76.45" maxVehicleNumber="79" />
   <interval begin="600.00" end="660.00" id="mainline_up_0_2" sampledSeconds="5152.21" nVehEntered="28" nVehLeft="30" nVehSeen="114" meanSpeed="9.90" meanTimeLoss="5.83" meanOccupancy="21.42" maxOccupancy="22.00" meanMaxJamLengthInVehicles="0.13" meanMaxJamLengthInMeters="0.79" maxJamLengthInVehicles="2" maxJamLengthInMeters="14.16" jamLengthInVehiclesSum="8" jamLengthInMetersSum="47.40" meanHaltingDuration="2.60" maxHaltingDuration="3.00" haltingDurationSum="13.00" meanIntervalHaltingDuration="2.60" maxIntervalHaltingDuration="3.00" intervalHaltingDurationSum="13.00" startedHalts="6.00" meanVehicleNumber="86.28" maxVehicleNumber="89" />
   <interval begin="600.00" end="660.00" id="mainline_up_1_2" sampledSeconds="4960.61" nVehEntered="46" nVehLeft="43" nVehSeen="126" meanSpeed="10.71" meanTimeLoss="2.34" meanOccupancy="20.62" maxOccupancy="21.50" meanMaxJamLengthInVehicles="0.00" meanMaxJamLengthInMeters="0.00" maxJamLengthInVehicles="0" maxJamLengthInMeters="0.00" jamLengthInVehiclesSum="0" jamLengthInMetersSum="0.00" meanHaltingDuration="0.00" maxHaltingDuration="0.00" haltingDurationSum="0.00" meanIntervalHaltingDuration="0.00" maxIntervalHaltingDuration="0.00" intervalHaltingDurationSum="0.00" startedHalts="0.00" meanVehicleNumber="83.15" maxVehicleNumber="86" />
   <interval begin="600.00" end="660.00" id="mainline_up_2_2" sampledSeconds="4402.18" nVehEntered="34" nVehLeft="37" nVehSeen="109" meanSpeed="11.01" meanTimeLoss="1.90" meanOccupancy="18.29" maxOccupancy="19.20" meanMaxJamLengthInVehicles="0.00" meanMaxJamLengthInMeters="0.00" maxJamLengthInVehicles="0" maxJamLengthInMeters="0.00" jamLengthInVehiclesSum="0" jamLengthInMetersSum="0.00" meanHaltingDuration="0.00" maxHaltingDuration="0.00" haltingDurationSum="0.00" meanIntervalHaltingDuration="0.00" maxIntervalHaltingDuration="0.00" intervalHaltingDurationSum="0.00" startedHalts="0.00" meanVehicleNumber="73.78" maxVehicleNumber="78" />
   <interval begin="660.00" end="720.00" id="mainline_up_0_2" sampledSeconds="5167.52" nVehEntered="35" nVehLeft="31" nVehSeen="119" meanSpeed="9.98" meanTimeLoss="5.33" meanOccupancy="21.48" maxOccupancy="22.25" meanMaxJamLengthInVehicles="0.70" meanMaxJamLengthInMeters="4.98" maxJamLengthInVehicles="5" maxJamLengthInMeters="40.45" jamLengthInVehiclesSum="46" jamLengthInMetersSum="317.96" meanHaltingDuration="3.05" maxHaltingDuration="7.00" haltingDurationSum="61.00" meanIntervalHaltingDuration="3.05" maxIntervalHaltingDuration="7.00" intervalHaltingDurationSum="61.00" startedHalts="22.00" meanVehicleNumber="86.48" maxVehicleNumber="90" />
   <interval begin="660.00" end="720.00" id="mainline_up_1_2" sampledSeconds="5029.36" nVehEntered="47" nVehLeft="49" nVehSeen="130" meanSpeed="10.72" meanTimeLoss="2.50" meanOccupancy="20.90" maxOccupancy="22.11" meanMaxJamLengthInVehicles="0.00" meanMaxJamLengthInMeters="0.00" maxJamLengthInVehicles="0" maxJamLengthInMeters="0.00" jamLengthInVehiclesSum="0" jamLengthInMetersSum="0.00" meanHaltingDuration="0.00" maxHaltingDuration="0.00" haltingDurationSum="0.00" meanIntervalHaltingDuration="0.00" maxIntervalHaltingDuration="0.00" intervalHaltingDurationSum="0.00" startedHalts="0.00" meanVehicleNumber="84.32" maxVehicleNumber="90" />
   <interval begin="660.00" end="720.00" id="mainline_up_2_2" sampledSeconds="4323.43" nVehEntered="35" nVehLeft="34" nVehSeen="107" meanSpeed="11.02" meanTimeLoss="1.97" meanOccupancy="17.97" maxOccupancy="18.25" meanMaxJamLengthInVehicles="0.00" meanMaxJamLengthInMeters="0.00" maxJamLengthInVehicles="0" maxJamLengthInMeters="0.00" jamLengthInVehiclesSum="0" jamLengthInMetersSum="0.00" meanHaltingDuration="0.00" maxHaltingDuration="0.00" haltingDurationSum="0.00" meanIntervalHaltingDuration="0.00" maxIntervalHaltingDuration="0.00" intervalHaltingDurationSum="0.00" startedHalts="0.00" meanVehicleNumber="72.52" maxVehicleNumber="74" />
   <interval begin="720.00" end="780.00" id="mainline_up_0_2" sampledSeconds="5219.77" nVehEntered="31" nVehLeft="33" nVehSeen="119" meanSpeed="10.19" meanTimeLoss="4.67" meanOccupancy="21.70" maxOccupancy="22.29" meanMaxJamLengthInVehicles="0.25" meanMaxJamLengthInMeters="1.47" maxJamLengthInVehicles="2" maxJamLengthInMeters="14.20" jamLengthInVehiclesSum="15" jamLengthInMetersSum="88.24" meanHaltingDuration="2.67" maxHaltingDuration="3.00" haltingDurationSum="24.00" meanIntervalHaltingDuration="2.67" maxIntervalHaltingDuration="3.00" intervalHaltingDurationSum="24.00" startedHalts="9.00" meanVehicleNumber="87.37" maxVehicleNumber="90" />
   <interval begin="720.00" end="780.00" id="mainline_up_1_2" sampledSeconds="5019.51" nVehEntered="48" nVehLeft="44" nVehSeen="129" meanSpeed="10.79" meanTimeLoss="2.35" meanOccupancy="20.87" maxOccupancy="21.75" meanMaxJamLengthInVehicles="0.00" meanMaxJamLengthInMeters="0.00" maxJamLengthInVehicles="0" maxJamLengthInMeters="0.00" jamLengthInVehiclesSum="0" jamLengthInMetersSum="0.00" meanHaltingDuration="0.00" maxHaltingDuration="0.00" haltingDurationSum="0.00" meanIntervalHaltingDuration="0.00" maxIntervalHaltingDuration="0.00" intervalHaltingDurationSum="0.00" startedHalts="0.00" meanVehicleNumber="84.17" maxVehicleNumber="88" />
   <interval begin="720.00" end="780.00" id="mainline_up_2_2" sampledSeconds="4426.55" nVehEntered="35" nVehLeft="33" nVehSeen="108" meanSpeed="11.02" meanTimeLoss="1.89" meanOccupancy="18.40" maxOccupancy="19.00" meanMaxJamLengthInVehicles="0.00" meanMaxJamLengthInMeters="0.00" maxJamLengthInVehicles="0" maxJamLengthInMeters="0.00" jamLengthInVehiclesSum="0" jamLengthInMetersSum="0.00" meanHaltingDuration="0.00" maxHaltingDuration="0.00" haltingDurationSum="0.00" meanIntervalHaltingDuration="0.00" maxIntervalHaltingDuration="0.00" intervalHaltingDurationSum="0.00" startedHalts="0.00" meanVehicleNumber="74.22" maxVehicleNumber="76" />
   <interval begin="780.00" end="840.00" id="mainline_up_0_2" sampledSeconds="5332.51" nVehEntered="32" nVehLeft="27" nVehSeen="118" meanSpeed="9.88" meanTimeLoss="11.23" meanOccupancy="22.17" maxOccupancy="22.99" meanMaxJamLengthInVehicles="0.10" meanMaxJamLengthInMeters="0.50" maxJamLengthInVehicles="1" maxJamLengthInMeters="5.00" jamLengthInVehiclesSum="6" jamLengthInMetersSum="30.00" meanHaltingDuration="1.18" maxHaltingDuration="2.00" haltingDurationSum="39.00" meanIntervalHaltingDuration="1.18" maxIntervalHaltingDuration="2.00" intervalHaltingDurationSum="39.00" startedHalts="33.00" meanVehicleNumber="89.20" maxVehicleNumber="92" />
   <interval begin="780.00" end="840.00" id="mainline_up_1_2" sampledSeconds="4942.29" nVehEntered="41" nVehLeft="44" nVehSeen="126" meanSpeed="11.49" meanTimeLoss="5.18" meanOccupancy="20.52" maxOccupancy="21.03" meanMaxJamLengthInVehicles="0.00" meanMaxJamLengthInMeters="0.00" maxJamLengthInVehicles="0" maxJamLengthInMeters="0.00" jamLengthInVehiclesSum="0" jamLengthInMetersSum="0.00" meanHaltingDuration="0.00" maxHaltingDuration="0.00" haltingDurationSum="0.00" meanIntervalHaltingDuration="0.00" maxIntervalHaltingDuration="0.00" intervalHaltingDurationSum="0.00" startedHalts="0.00" meanVehicleNumber="82.88" maxVehicleNumber="86" />
   <interval begin="780.00" end="840.00" id="mainline_up_2_2" sampledSeconds="4578.07" nVehEntered="34" nVehLeft="31" nVehSeen="109" meanSpeed="11.93" meanTimeLoss="4.74" meanOccupancy="19.03" maxOccupancy="19.50" meanMaxJamLengthInVehicles="0.00" meanMaxJamLengthInMeters="0.00" maxJamLengthInVehicles="0" maxJamLengthInMeters="0.00" jamLengthInVehiclesSum="0" jamLengthInMetersSum="0.00" meanHaltingDuration="0.00" maxHaltingDuration="0.00" haltingDurationSum="0.00" meanIntervalHaltingDuration="0.00" maxIntervalHaltingDuration="0.00" intervalHaltingDurationSum="0.00" startedHalts="0.00" meanVehicleNumber="76.72" maxVehicleNumber="79" />
   <interval begin="840.00" end="900.00" id="mainline_up_0_2" sampledSeconds="5410.21" nVehEntered="32" nVehLeft="35" nVehSeen="123" meanSpeed="9.00" meanTimeLoss="9.37" meanOccupancy="22.49" maxOccupancy="23.00" meanMaxJamLengthInVehicles="3.65" meanMaxJamLengthInMeters="27.83" maxJamLengthInVehicles="7" maxJamLengthInMeters="55.51" jamLengthInVehiclesSum="219" jamLengthInMetersSum="1669.94" meanHaltingDuration="5.75" maxHaltingDuration="9.00" haltingDurationSum="253.00" meanIntervalHaltingDuration="5.75" maxIntervalHaltingDuration="9.00" intervalHaltingDurationSum="253.00" startedHalts="46.00" meanVehicleNumber="90.60" maxVehicleNumber="93" />
   <interval begin="840.00" end="900.00" id="mainline_up_1_2" sampledSeconds="5049.86" nVehEntered="46" nVehLeft="44" nVehSeen="128" meanSpeed="10.70" meanTimeLoss="2.62" meanOccupancy="20.98" maxOccupancy="21.50" meanMaxJamLengthInVehicles="0.02" meanMaxJamLengthInMeters="0.08" maxJamLengthInVehicles="1" maxJamLengthInMeters="5.00" jamLengthInVehiclesSum="1" jamLengthInMetersSum="5.00" meanHaltingDuration="2.00" maxHaltingDuration="2.00" haltingDurationSum="2.00" meanIntervalHaltingDuration="2.00" maxIntervalHaltingDuration="2.00" intervalHaltingDurationSum="2.00" startedHalts="1.00" meanVehicleNumber="84.65" maxVehicleNumber="87" />
   <interval begin="840.00" end="900.00" id="mainline_up_2_2" sampledSeconds="4659.96" nVehEntered="33" nVehLeft="32" nVehSeen="111" meanSpeed="10.91" meanTimeLoss="2.15" meanOccupancy="19.37" maxOccupancy="20.00" meanMaxJamLengthInVehicles="0.00" meanMaxJamLengthInMeters="0.00" maxJamLengthInVehicles="0" maxJamLengthInMeters="0.00" jamLengthInVehiclesSum="0" jamLengthInMetersSum="0.00" meanHaltingDuration="0.00" maxHaltingDuration="0.00" haltingDurationSum="0.00" meanIntervalHaltingDuration="0.00" maxIntervalHaltingDuration="0.00" intervalHaltingDurationSum="0.00" startedHalts="0.00" meanVehicleNumber="78.07" maxVehicleNumber="80" />