<?xml version="1.0" encoding="UTF-8"?>

<!-- generated on 02/28/19 16:41:23 by Eclipse SUMO Version 1.0.1
<configuration xmlns:xsi="http://www.w3.org/2001/XMLSchema-instance" xsi:noNamespaceSchemaLocation="http://sumo.dlr.de/xsd/sumoConfiguration.xsd">

    <input>
        <net-file value="./project/ramp.net.xml"/>
        <route-files value="./project/ramp.rou.xml"/>
        <additional-files value="./project/ramp.add.xml"/>
    </input>

    <time>
        <begin value="0"/>
    </time>

    <report>
        <verbose value="true"/>
        <no-step-log value="true"/>
    </report>

    <traci_server>
        <remote-port value="34936"/>
    </traci_server>

    <random_number>
        <seed value="1232363635"/>
    </random_number>

    <gui_only>
        <quit-on-end value="true"/>
        <start value="true"/>
    </gui_only>

</configuration>
-->

<detector xmlns:xsi="http://www.w3.org/2001/XMLSchema-instance" xsi:noNamespaceSchemaLocation="http://sumo.dlr.de/xsd/det_e2_file.xsd">
   <interval begin="0.00" end="60.00" id="mainline_up_0_2" sampledSeconds="0.00" nVehEntered="0" nVehLeft="0" nVehSeen="0" meanSpeed="-1.00" meanTimeLoss="-1.00" meanOccupancy="0.00" maxOccupancy="0.00" meanMaxJamLengthInVehicles="0.00" meanMaxJamLengthInMeters="0.00" maxJamLengthInVehicles="0" maxJamLengthInMeters="0.00" jamLengthInVehiclesSum="0" jamLengthInMetersSum="0.00" meanHaltingDuration="0.00" maxHaltingDuration="0.00" haltingDurationSum="0.00" meanIntervalHaltingDuration="0.00" maxIntervalHaltingDuration="0.00" intervalHaltingDurationSum="0.00" startedHalts="0.00" meanVehicleNumber="0.00" maxVehicleNumber="0" />
   <interval begin="0.00" end="60.00" id="mainline_up_1_2" sampledSeconds="0.00" nVehEntered="0" nVehLeft="0" nVehSeen="0" meanSpeed="-1.00" meanTimeLoss="-1.00" meanOccupancy="0.00" maxOccupancy="0.00" meanMaxJamLengthInVehicles="0.00" meanMaxJamLengthInMeters="0.00" maxJamLengthInVehicles="0" maxJamLengthInMeters="0.00" jamLengthInVehiclesSum="0" jamLengthInMetersSum="0.00" meanHaltingDuration="0.00" maxHaltingDuration="0.00" haltingDurationSum="0.00" meanIntervalHaltingDuration="0.00" maxIntervalHaltingDuration="0.00" intervalHaltingDurationSum="0.00" startedHalts="0.00" meanVehicleNumber="0.00" maxVehicleNumber="0" />
   <interval begin="0.00" end="60.00" id="mainline_up_2_2" sampledSeconds="0.00" nVehEntered="0" nVehLeft="0" nVehSeen="0" meanSpeed="-1.00" meanTimeLoss="-1.00" meanOccupancy="0.00" maxOccupancy="0.00" meanMaxJamLengthInVehicles="0.00" meanMaxJamLengthInMeters="0.00" maxJamLengthInVehicles="0" maxJamLengthInMeters="0.00" jamLengthInVehiclesSum="0" jamLengthInMetersSum="0.00" meanHaltingDuration="0.00" maxHaltingDuration="0.00" haltingDurationSum="0.00" meanIntervalHaltingDuration="0.00" maxIntervalHaltingDuration="0.00" intervalHaltingDurationSum="0.00" startedHalts="0.00" meanVehicleNumber="0.00" maxVehicleNumber="0" />
   <interval begin="60.00" end="120.00" id="mainline_up_0_2" sampledSeconds="236.43" nVehEntered="11" nVehLeft="2" nVehSeen="11" meanSpeed="20.23" meanTimeLoss="0.67" meanOccupancy="2.50" maxOccupancy="5.65" meanMaxJamLengthInVehicles="0.00" meanMaxJamLengthInMeters="0.00" maxJamLengthInVehicles="0" maxJamLengthInMeters="0.00" jamLengthInVehiclesSum="0" jamLengthInMetersSum="0.00" meanHaltingDuration="0.00" maxHaltingDuration="0.00" haltingDurationSum="0.00" meanIntervalHaltingDuration="0.00" maxIntervalHaltingDuration="0.00" intervalHaltingDurationSum="0.00" startedHalts="0.00" meanVehicleNumber="4.02" maxVehicleNumber="10" />
   <interval begin="60.00" end="120.00" id="mainline_up_1_2" sampledSeconds="291.75" nVehEntered="13" nVehLeft="3" nVehSeen="13" meanSpeed="21.29" meanTimeLoss="1.38" meanOccupancy="3.11" maxOccupancy="6.91" meanMaxJamLengthInVehicles="0.00" meanMaxJamLengthInMeters="0.00" maxJamLengthInVehicles="0" maxJamLengthInMeters="0.00" jamLengthInVehiclesSum="0" jamLengthInMetersSum="0.00" meanHaltingDuration="0.00" maxHaltingDuration="0.00" haltingDurationSum="0.00" meanIntervalHaltingDuration="0.00" maxIntervalHaltingDuration="0.00" intervalHaltingDurationSum="0.00" startedHalts="0.00" meanVehicleNumber="5.00" maxVehicleNumber="12" />
   <interval begin="60.00" end="120.00" id="mainline_up_2_2" sampledSeconds="263.82" nVehEntered="15" nVehLeft="1" nVehSeen="15" meanSpeed="22.96" meanTimeLoss="1.36" meanOccupancy="2.82" maxOccupancy="8.79" meanMaxJamLengthInVehicles="0.00" meanMaxJamLengthInMeters="0.00" maxJamLengthInVehicles="0" maxJamLengthInMeters="0.00" jamLengthInVehiclesSum="0" jamLengthInMetersSum="0.00" meanHaltingDuration="0.00" maxHaltingDuration="0.00" haltingDurationSum="0.00" meanIntervalHaltingDuration="0.00" maxIntervalHaltingDuration="0.00" intervalHaltingDurationSum="0.00" startedHalts="0.00" meanVehicleNumber="4.53" maxVehicleNumber="14" />
   <interval begin="120.00" end="180.00" id="mainline_up_0_2" sampledSeconds="631.68" nVehEntered="20" nVehLeft="15" nVehSeen="29" meanSpeed="18.18" meanTimeLoss="1.51" meanOccupancy="6.57" maxOccupancy="8.79" meanMaxJamLengthInVehicles="0.00" meanMaxJamLengthInMeters="0.00" maxJamLengthInVehicles="0" maxJamLengthInMeters="0.00" jamLengthInVehiclesSum="0" jamLengthInMetersSum="0.00" meanHaltingDuration="0.00" maxHaltingDuration="0.00" haltingDurationSum="0.00" meanIntervalHaltingDuration="0.00" maxIntervalHaltingDuration="0.00" intervalHaltingDurationSum="0.00" startedHalts="0.00" meanVehicleNumber="10.77" maxVehicleNumber="14" />
   <interval begin="120.00" end="180.00" id="mainline_up_1_2" sampledSeconds="889.93" nVehEntered="32" nVehLeft="24" nVehSeen="42" meanSpeed="19.39" meanTimeLoss="2.09" meanOccupancy="9.31" maxOccupancy="12.34" meanMaxJamLengthInVehicles="0.00" meanMaxJamLengthInMeters="0.00" maxJamLengthInVehicles="0" maxJamLengthInMeters="0.00" jamLengthInVehiclesSum="0" jamLengthInMetersSum="0.00" meanHaltingDuration="0.00" maxHaltingDuration="0.00" haltingDurationSum="0.00" meanIntervalHaltingDuration="0.00" maxIntervalHaltingDuration="0.00" intervalHaltingDurationSum="0.00" startedHalts="0.00" meanVehicleNumber="15.18" maxVehicleNumber="20" />
   <interval begin="120.00" end="180.00" id="mainline_up_2_2" sampledSeconds="1168.74" nVehEntered="39" nVehLeft="28" nVehSeen="53" meanSpeed="21.46" meanTimeLoss="1.94" meanOccupancy="12.23" maxOccupancy="16.33" meanMaxJamLengthInVehicles="0.00" meanMaxJamLengthInMeters="0.00" maxJamLengthInVehicles="0" maxJamLengthInMeters="0.00" jamLengthInVehiclesSum="0" jamLengthInMetersSum="0.00" meanHaltingDuration="0.00" maxHaltingDuration="0.00" haltingDurationSum="0.00" meanIntervalHaltingDuration="0.00" maxIntervalHaltingDuration="0.00" intervalHaltingDurationSum="0.00" startedHalts="0.00" meanVehicleNumber="20.00" maxVehicleNumber="27" />
   <interval begin="180.00" end="240.00" id="mainline_up_0_2" sampledSeconds="873.22" nVehEntered="28" nVehLeft="24" nVehSeen="42" meanSpeed="17.87" meanTimeLoss="1.86" meanOccupancy="9.16" maxOccupancy="11.93" meanMaxJamLengthInVehicles="0.00" meanMaxJamLengthInMeters="0.00" maxJamLengthInVehicles="0" maxJamLengthInMeters="0.00" jamLengthInVehiclesSum="0" jamLengthInMetersSum="0.00" meanHaltingDuration="0.00" maxHaltingDuration="0.00" haltingDurationSum="0.00" meanIntervalHaltingDuration="0.00" maxIntervalHaltingDuration="0.00" intervalHaltingDurationSum="0.00" startedHalts="0.00" meanVehicleNumber="14.92" maxVehicleNumber="19" />
   <interval begin="180.00" end="240.00" id="mainline_up_1_2" sampledSeconds="1012.83" nVehEntered="35" nVehLeft="34" nVehSeen="53" meanSpeed="19.42" meanTimeLoss="1.97" meanOccupancy="10.52" maxOccupancy="12.56" meanMaxJamLengthInVehicles="0.00" meanMaxJamLengthInMeters="0.00" maxJamLengthInVehicles="0" maxJamLengthInMeters="0.00" jamLengthInVehiclesSum="0" jamLengthInMetersSum="0.00" meanHaltingDuration="0.00" maxHaltingDuration="0.00" haltingDurationSum="0.00" meanIntervalHaltingDuration="0.00" maxIntervalHaltingDuration="0.00" intervalHaltingDurationSum="0.00" startedHalts="0.00" meanVehicleNumber="17.30" maxVehicleNumber="20" />
   <interval begin="180.00" end="240.00" id="mainline_up_2_2" sampledSeconds="1162.60" nVehEntered="30" nVehLeft="35" nVehSeen="55" meanSpeed="20.85" meanTimeLoss="2.09" meanOccupancy="12.07" maxOccupancy="15.29" meanMaxJamLengthInVehicles="0.00" meanMaxJamLengthInMeters="0.00" maxJamLengthInVehicles="0" maxJamLengthInMeters="0.00" jamLengthInVehiclesSum="0" jamLengthInMetersSum="0.00" meanHaltingDuration="0.00" maxHaltingDuration="0.00" haltingDurationSum="0.00" meanIntervalHaltingDuration="0.00" maxIntervalHaltingDuration="0.00" intervalHaltingDurationSum="0.00" startedHalts="0.00" meanVehicleNumber="19.90" maxVehicleNumber="25" />
   <interval begin="240.00" end="300.00" id="mainline_up_0_2" sampledSeconds="917.45" nVehEntered="23" nVehLeft="28" nVehSeen="41" meanSpeed="17.06" meanTimeLoss="3.38" meanOccupancy="9.49" maxOccupancy="12.51" meanMaxJamLengthInVehicles="0.03" meanMaxJamLengthInMeters="0.04" maxJamLengthInVehicles="1" maxJamLengthInMeters="2.65" jamLengthInVehiclesSum="2" jamLengthInMetersSum="2.65" meanHaltingDuration="2.00" maxHaltingDuration="2.00" haltingDurationSum="2.00" meanIntervalHaltingDuration="2.00" maxIntervalHaltingDuration="2.00" intervalHaltingDurationSum="2.00" startedHalts="3.00" meanVehicleNumber="15.50" maxVehicleNumber="20" />
   <interval begin="240.00" end="300.00" id="mainline_up_1_2" sampledSeconds="1150.13" nVehEntered="41" nVehLeft="40" nVehSeen="60" meanSpeed="18.92" meanTimeLoss="2.75" meanOccupancy="11.95" maxOccupancy="13.82" meanMaxJamLengthInVehicles="0.00" meanMaxJamLengthInMeters="0.00" maxJamLengthInVehicles="0" maxJamLengthInMeters="0.00" jamLengthInVehiclesSum="0" jamLengthInMetersSum="0.00" meanHaltingDuration="0.00" maxHaltingDuration="0.00" haltingDurationSum="0.00" meanIntervalHaltingDuration="0.00" maxIntervalHaltingDuration="0.00" intervalHaltingDurationSum="0.00" startedHalts="0.00" meanVehicleNumber="19.60" maxVehicleNumber="22" />
   <interval begin="240.00" end="300.00" id="mainline_up_2_2" sampledSeconds="1264.46" nVehEntered="40" nVehLeft="37" nVehSeen="60" meanSpeed="20.99" meanTimeLoss="2.06" meanOccupancy="13.15" maxOccupancy="14.82" meanMaxJamLengthInVehicles="0.00" meanMaxJamLengthInMeters="0.00" maxJamLengthInVehicles="0" maxJamLengthInMeters="0.00" jamLengthInVehiclesSum="0" jamLengthInMetersSum="0.00" meanHaltingDuration="0.00" maxHaltingDuration="0.00" haltingDurationSum="0.00" meanIntervalHaltingDuration="0.00" maxIntervalHaltingDuration="0.00" intervalHaltingDurationSum="0.00" startedHalts="0.00" meanVehicleNumber="21.67" maxVehicleNumber="24" />
   <interval begin="300.00" end="360.00" id="mainline_up_0_2" sampledSeconds="987.12" nVehEntered="30" nVehLeft="24" nVehSeen="43" meanSpeed="15.37" meanTimeLoss="1.75" meanOccupancy="10.26" maxOccupancy="11.93" meanMaxJamLengthInVehicles="0.00" meanMaxJamLengthInMeters="0.00" maxJamLengthInVehicles="0" maxJamLengthInMeters="0.00" jamLengthInVehiclesSum="0" jamLengthInMetersSum="0.00" meanHaltingDuration="1.00" maxHaltingDuration="1.00" haltingDurationSum="1.00" meanIntervalHaltingDuration="1.00" maxIntervalHaltingDuration="1.00" intervalHaltingDurationSum="1.00" startedHalts="1.00" meanVehicleNumber="16.72" maxVehicleNumber="20" />
   <interval begin="300.00" end="360.00" id="mainline_up_1_2" sampledSeconds="1230.74" nVehEntered="46" nVehLeft="44" nVehSeen="66" meanSpeed="15.88" meanTimeLoss="1.44" meanOccupancy="12.79" maxOccupancy="14.45" meanMaxJamLengthInVehicles="0.00" meanMaxJamLengthInMeters="0.00" maxJamLengthInVehicles="0" maxJamLengthInMeters="0.00" jamLengthInVehiclesSum="0" jamLengthInMetersSum="0.00" meanHaltingDuration="0.00" maxHaltingDuration="0.00" haltingDurationSum="0.00" meanIntervalHaltingDuration="0.00" maxIntervalHaltingDuration="0.00" intervalHaltingDurationSum="0.00" startedHalts="0.00" meanVehicleNumber="20.95" maxVehicleNumber="23" />
   <interval begin="300.00" end="360.00" id="mainline_up_2_2" sampledSeconds="1365.40" nVehEntered="36" nVehLeft="40" nVehSeen="59" meanSpeed="16.13" meanTimeLoss="1.78" meanOccupancy="14.25" maxOccupancy="15.70" meanMaxJamLengthInVehicles="0.00" meanMaxJamLengthInMeters="0.00" maxJamLengthInVehicles="0" maxJamLengthInMeters="0.00" jamLengthInVehiclesSum="0" jamLengthInMetersSum="0.00" meanHaltingDuration="0.00" maxHaltingDuration="0.00" haltingDurationSum="0.00" meanIntervalHaltingDuration="0.00" maxIntervalHaltingDuration="0.00" intervalHaltingDurationSum="0.00" startedHalts="0.00" meanVehicleNumber="23.30" maxVehicleNumber="26" />
   <interval begin="360.00" end="420.00" id="mainline_up_0_2" sampledSeconds="1299.47" nVehEntered="31" nVehLeft="26" nVehSeen="50" meanSpeed="13.32" meanTimeLoss="4.36" meanOccupancy="13.45" maxOccupancy="15.65" meanMaxJamLengthInVehicles="0.48" meanMaxJamLengthInMeters="2.94" maxJamLengthInVehicles="3" maxJamLengthInMeters="21.60" jamLengthInVehiclesSum="29" jamLengthInMetersSum="176.62" meanHaltingDuration="3.23" maxHaltingDuration="8.00" haltingDurationSum="42.00" meanIntervalHaltingDuration="3.23" maxIntervalHaltingDuration="8.00" intervalHaltingDurationSum="42.00" startedHalts="13.00" meanVehicleNumber="21.78" maxVehicleNumber="25" />
   <interval begin="360.00" end="420.00" id="mainline_up_1_2" sampledSeconds="1510.76" nVehEntered="51" nVehLeft="47" nVehSeen="73" meanSpeed="14.29" meanTimeLoss="2.95" meanOccupancy="15.72" maxOccupancy="18.05" meanMaxJamLengthInVehicles="0.00" meanMaxJamLengthInMeters="0.00" maxJamLengthInVehicles="0" maxJamLengthInMeters="0.00" jamLengthInVehiclesSum="0" jamLengthInMetersSum="0.00" meanHaltingDuration="0.00" maxHaltingDuration="0.00" haltingDurationSum="0.00" meanIntervalHaltingDuration="0.00" maxIntervalHaltingDuration="0.00" intervalHaltingDurationSum="0.00" startedHalts="0.00" meanVehicleNumber="25.72" maxVehicleNumber="29" />
   <interval begin="360.00" end="420.00" id="mainline_up_2_2" sampledSeconds="1566.77" nVehEntered="38" nVehLeft="27" nVehSeen="57" meanSpeed="14.50" meanTimeLoss="3.91" meanOccupancy="16.32" maxOccupancy="18.35" meanMaxJamLengthInVehicles="0.00" meanMaxJamLengthInMeters="0.00" maxJamLengthInVehicles="0" maxJamLengthInMeters="0.00" jamLengthInVehiclesSum="0" jamLengthInMetersSum="0.00" meanHaltingDuration="0.00" maxHaltingDuration="0.00" haltingDurationSum="0.00" meanIntervalHaltingDuration="0.00" maxIntervalHaltingDuration="0.00" intervalHaltingDurationSum="0.00" startedHalts="0.00" meanVehicleNumber="26.60" maxVehicleNumber="30" />
   <interval begin="420.00" end="480.00" id="mainline_up_0_2" sampledSeconds="1486.15" nVehEntered="28" nVehLeft="28" nVehSeen="52" meanSpeed="9.48" meanTimeLoss="12.56" meanOccupancy="15.38" maxOccupancy="16.76" meanMaxJamLengthInVehicles="2.53" meanMaxJamLengthInMeters="19.05" maxJamLengthInVehicles="8" maxJamLengthInMeters="65.32" jamLengthInVehiclesSum="187" jamLengthInMetersSum="1348.07" meanHaltingDuration="4.03" maxHaltingDuration="11.00" haltingDurationSum="242.00" meanIntervalHaltingDuration="3.90" maxIntervalHaltingDuration="11.00" intervalHaltingDurationSum="234.00" startedHalts="63.00" meanVehicleNumber="24.98" maxVehicleNumber="27" />
   <interval begin="420.00" end="480.00" id="mainline_up_1_2" sampledSeconds="1532.39" nVehEntered="50" nVehLeft="46" nVehSeen="76" meanSpeed="13.46" meanTimeLoss="4.06" meanOccupancy="15.87" maxOccupancy="18.84" meanMaxJamLengthInVehicles="0.00" meanMaxJamLengthInMeters="0.00" maxJamLengthInVehicles="0" maxJamLengthInMeters="0.00" jamLengthInVehiclesSum="0" jamLengthInMetersSum="0.00" meanHaltingDuration="1.00" maxHaltingDuration="1.00" haltingDurationSum="3.00" meanIntervalHaltingDuration="1.00" maxIntervalHaltingDuration="1.00" intervalHaltingDurationSum="3.00" startedHalts="3.00" meanVehicleNumber="25.97" maxVehicleNumber="31" />
   <interval begin="420.00" end="480.00" id="mainline_up_2_2" sampledSeconds="1701.71" nVehEntered="38" nVehLeft="39" nVehSeen="68" meanSpeed="14.27" meanTimeLoss="4.10" meanOccupancy="17.70" maxOccupancy="18.84" meanMaxJamLengthInVehicles="0.00" meanMaxJamLengthInMeters="0.00" maxJamLengthInVehicles="0" maxJamLengthInMeters="0.00" jamLengthInVehiclesSum="0" jamLengthInMetersSum="0.00" meanHaltingDuration="0.00" maxHaltingDuration="0.00" haltingDurationSum="0.00" meanIntervalHaltingDuration="0.00" maxIntervalHaltingDuration="0.00" intervalHaltingDurationSum="0.00" startedHalts="0.00" meanVehicleNumber="28.93" maxVehicleNumber="31" />
   <interval begin="480.00" end="540.00" id="mainline_up_0_2" sampledSeconds="1498.18" nVehEntered="23" nVehLeft="24" nVehSeen="47" meanSpeed="11.36" meanTimeLoss="7.45" meanOccupancy="15.54" maxOccupancy="17.59" meanMaxJamLengthInVehicles="0.87" meanMaxJamLengthInMeters="6.19" maxJamLengthInVehicles="5" maxJamLengthInMeters="39.59" jamLengthInVehiclesSum="56" jamLengthInMetersSum="399.07" meanHaltingDuration="2.37" maxHaltingDuration="10.00" haltingDurationSum="45.00" meanIntervalHaltingDuration="2.37" maxIntervalHaltingDuration="10.00" intervalHaltingDurationSum="45.00" startedHalts="24.00" meanVehicleNumber="25.22" maxVehicleNumber="28" />
   <interval begin="480.00" end="540.00" id="mainline_up_1_2" sampledSeconds="1781.95" nVehEntered="43" nVehLeft="41" nVehSeen="73" meanSpeed="11.69" meanTimeLoss="5.61" meanOccupancy="18.52" maxOccupancy="20.10" meanMaxJamLengthInVehicles="0.00" meanMaxJamLengthInMeters="0.00" maxJamLengthInVehicles="0" maxJamLengthInMeters="0.00" jamLengthInVehiclesSum="0" jamLengthInMetersSum="0.00" meanHaltingDuration="0.00" maxHaltingDuration="0.00" haltingDurationSum="0.00" meanIntervalHaltingDuration="0.00" maxIntervalHaltingDuration="0.00" intervalHaltingDurationSum="0.00" startedHalts="0.00" meanVehicleNumber="30.17" maxVehicleNumber="33" />
   <interval begin="480.00" end="540.00" id="mainline_up_2_2" sampledSeconds="1822.78" nVehEntered="41" nVehLeft="36" nVehSeen="70" meanSpeed="12.82" meanTimeLoss="4.27" meanOccupancy="18.97" maxOccupancy="21.36" meanMaxJamLengthInVehicles="0.00" meanMaxJamLengthInMeters="0.00" maxJamLengthInVehicles="0" maxJamLengthInMeters="0.00" jamLengthInVehiclesSum="0" jamLengthInMetersSum="0.00" meanHaltingDuration="0.00" maxHaltingDuration="0.00" haltingDurationSum="0.00" meanIntervalHaltingDuration="0.00" maxIntervalHaltingDuration="0.00" intervalHaltingDurationSum="0.00" startedHalts="0.00" meanVehicleNumber="30.93" maxVehicleNumber="35" />
   <interval begin="540.00" end="600.00" id="mainline_up_0_2" sampledSeconds="1791.81" nVehEntered="29" nVehLeft="26" nVehSeen="52" meanSpeed="9.26" meanTimeLoss="12.93" meanOccupancy="18.57" maxOccupancy="21.98" meanMaxJamLengthInVehicles="1.67" meanMaxJamLengthInMeters="12.28" maxJamLengthInVehicles="8" maxJamLengthInMeters="62.46" jamLengthInVehiclesSum="100" jamLengthInMetersSum="736.64" meanHaltingDuration="4.54" maxHaltingDuration="10.00" haltingDurationSum="118.00" meanIntervalHaltingDuration="4.46" maxIntervalHaltingDuration="10.00" intervalHaltingDurationSum="116.00" startedHalts="28.00" meanVehicleNumber="30.10" maxVehicleNumber="36" />
   <interval begin="540.00" end="600.00" id="mainline_up_1_2" sampledSeconds="1825.08" nVehEntered="49" nVehLeft="51" nVehSeen="81" meanSpeed="11.80" meanTimeLoss="5.03" meanOccupancy="18.99" maxOccupancy="21.17" meanMaxJamLengthInVehicles="0.00" meanMaxJamLengthInMeters="0.00" maxJamLengthInVehicles="0" maxJamLengthInMeters="0.00" jamLengthInVehiclesSum="0" jamLengthInMetersSum="0.00" meanHaltingDuration="0.00" maxHaltingDuration="0.00" haltingDurationSum="0.00" meanIntervalHaltingDuration="0.00" maxIntervalHaltingDuration="0.00" intervalHaltingDurationSum="0.00" startedHalts="0.00" meanVehicleNumber="30.87" maxVehicleNumber="34" />
   <interval begin="540.00" end="600.00" id="mainline_up_2_2" sampledSeconds="1900.21" nVehEntered="41" nVehLeft="43" nVehSeen="75" meanSpeed="12.89" meanTimeLoss="4.03" meanOccupancy="19.76" maxOccupancy="21.36" meanMaxJamLengthInVehicles="0.00" meanMaxJamLengthInMeters="0.00" maxJamLengthInVehicles="0" maxJamLengthInMeters="0.00" jamLengthInVehiclesSum="0" jamLengthInMetersSum="0.00" meanHaltingDuration="0.00" maxHaltingDuration="0.00" haltingDurationSum="0.00" meanIntervalHaltingDuration="0.00" maxIntervalHaltingDuration="0.00" intervalHaltingDurationSum="0.00" startedHalts="0.00" meanVehicleNumber="32.28" maxVehicleNumber="35" />
   <interval begin="600.00" end="660.00" id="mainline_up_0_2" sampledSeconds="1751.58" nVehEntered="27" nVehLeft="19" nVehSeen="53" meanSpeed="7.43" meanTimeLoss="17.22" meanOccupancy="18.12" maxOccupancy="21.36" meanMaxJamLengthInVehicles="4.20" meanMaxJamLengthInMeters="31.90" maxJamLengthInVehicles="14" maxJamLengthInMeters="107.45" jamLengthInVehiclesSum="285" jamLengthInMetersSum="2131.12" meanHaltingDuration="6.51" maxHaltingDuration="18.00" haltingDurationSum="306.00" meanIntervalHaltingDuration="6.51" maxIntervalHaltingDuration="18.00" intervalHaltingDurationSum="306.00" startedHalts="51.00" meanVehicleNumber="29.42" maxVehicleNumber="35" />
   <interval begin="600.00" end="660.00" id="mainline_up_1_2" sampledSeconds="1814.47" nVehEntered="49" nVehLeft="46" nVehSeen="79" meanSpeed="11.32" meanTimeLoss="6.33" meanOccupancy="18.88" maxOccupancy="22.11" meanMaxJamLengthInVehicles="0.00" meanMaxJamLengthInMeters="0.00" maxJamLengthInVehicles="0" maxJamLengthInMeters="0.00" jamLengthInVehiclesSum="0" jamLengthInMetersSum="0.00" meanHaltingDuration="1.00" maxHaltingDuration="1.00" haltingDurationSum="2.00" meanIntervalHaltingDuration="1.00" maxIntervalHaltingDuration="1.00" intervalHaltingDurationSum="2.00" startedHalts="2.00" meanVehicleNumber="30.72" maxVehicleNumber="37" />
   <interval begin="600.00" end="660.00" id="mainline_up_2_2" sampledSeconds="1912.96" nVehEntered="41" nVehLeft="39" nVehSeen="73" meanSpeed="13.06" meanTimeLoss="4.59" meanOccupancy="19.90" maxOccupancy="22.61" meanMaxJamLengthInVehicles="0.00" meanMaxJamLengthInMeters="0.00" maxJamLengthInVehicles="0" maxJamLengthInMeters="0.00" jamLengthInVehiclesSum="0" jamLengthInMetersSum="0.00" meanHaltingDuration="0.00" maxHaltingDuration="0.00" haltingDurationSum="0.00" meanIntervalHaltingDuration="0.00" maxIntervalHaltingDuration="0.00" intervalHaltingDurationSum="0.00" startedHalts="0.00" meanVehicleNumber="32.40" maxVehicleNumber="36" />
   <interval begin="660.00" end="720.00" id="mainline_up_0_2" sampledSeconds="2229.48" nVehEntered="33" nVehLeft="26" nVehSeen="67" meanSpeed="6.44" meanTimeLoss="19.75" meanOccupancy="23.19" maxOccupancy="25.75" meanMaxJamLengthInVehicles="8.52" meanMaxJamLengthInMeters="66.79" maxJamLengthInVehicles="16" maxJamLengthInMeters="128.50" jamLengthInVehiclesSum="616" jamLengthInMetersSum="4663.56" meanHaltingDuration="6.01" maxHaltingDuration="28.00" haltingDurationSum="889.00" meanIntervalHaltingDuration="4.94" maxIntervalHaltingDuration="25.00" intervalHaltingDurationSum="731.00" startedHalts="137.00" meanVehicleNumber="37.45" maxVehicleNumber="41" />
   <interval begin="660.00" end="720.00" id="mainline_up_1_2" sampledSeconds="1840.91" nVehEntered="47" nVehLeft="49" nVehSeen="80" meanSpeed="12.83" meanTimeLoss="4.69" meanOccupancy="19.15" maxOccupancy="20.73" meanMaxJamLengthInVehicles="0.00" meanMaxJamLengthInMeters="0.00" maxJamLengthInVehicles="0" maxJamLengthInMeters="0.00" jamLengthInVehiclesSum="0" jamLengthInMetersSum="0.00" meanHaltingDuration="1.00" maxHaltingDuration="1.00" haltingDurationSum="1.00" meanIntervalHaltingDuration="1.00" maxIntervalHaltingDuration="1.00" intervalHaltingDurationSum="1.00" startedHalts="1.00" meanVehicleNumber="31.22" maxVehicleNumber="34" />
   <interval begin="660.00" end="720.00" id="mainline_up_2_2" sampledSeconds="1976.51" nVehEntered="36" nVehLeft="38" nVehSeen="70" meanSpeed="13.03" meanTimeLoss="5.37" meanOccupancy="20.56" maxOccupancy="21.36" meanMaxJamLengthInVehicles="0.00" meanMaxJamLengthInMeters="0.00" maxJamLengthInVehicles="0" maxJamLengthInMeters="0.00" jamLengthInVehiclesSum="0" jamLengthInMetersSum="0.00" meanHaltingDuration="0.00" maxHaltingDuration="0.00" haltingDurationSum="0.00" meanIntervalHaltingDuration="0.00" maxIntervalHaltingDuration="0.00" intervalHaltingDurationSum="0.00" startedHalts="0.00" meanVehicleNumber="33.53" maxVehicleNumber="35" />
   <interval begin="720.00" end="780.00" id="mainline_up_0_2" sampledSeconds="2322.20" nVehEntered="23" nVehLeft="25" nVehSeen="64" meanSpeed="6.90" meanTimeLoss="22.47" meanOccupancy="24.09" maxOccupancy="27.82" meanMaxJamLengthInVehicles="3.02" meanMaxJamLengthInMeters="22.00" maxJamLengthInVehicles="10" maxJamLengthInMeters="78.28" jamLengthInVehiclesSum="214" jamLengthInMetersSum="1486.69" meanHaltingDuration="1.90" maxHaltingDuration="18.00" haltingDurationSum="344.00" meanIntervalHaltingDuration="1.85" maxIntervalHaltingDuration="16.00" intervalHaltingDurationSum="334.00" startedHalts="179.00" meanVehicleNumber="38.87" maxVehicleNumber="45" />
   <interval begin="720.00" end="780.00" id="mainline_up_1_2" sampledSeconds="2214.01" nVehEntered="47" nVehLeft="46" nVehSeen="78" meanSpeed="9.30" meanTimeLoss="14.00" meanOccupancy="23.03" maxOccupancy="25.85" meanMaxJamLengthInVehicles="0.53" meanMaxJamLengthInMeters="3.03" maxJamLengthInVehicles="2" maxJamLengthInMeters="13.97" jamLengthInVehiclesSum="46" jamLengthInMetersSum="251.96" meanHaltingDuration="1.63" maxHaltingDuration="3.00" haltingDurationSum="119.00" meanIntervalHaltingDuration="1.63" maxIntervalHaltingDuration="3.00" intervalHaltingDurationSum="119.00" startedHalts="73.00" meanVehicleNumber="37.43" maxVehicleNumber="42" />
   <interval begin="720.00" end="780.00" id="mainline_up_2_2" sampledSeconds="1886.46" nVehEntered="44" nVehLeft="42" nVehSeen="76" meanSpeed="14.63" meanTimeLoss="5.00" meanOccupancy="19.62" maxOccupancy="21.25" meanMaxJamLengthInVehicles="0.00" meanMaxJamLengthInMeters="0.00" maxJamLengthInVehicles="0" maxJamLengthInMeters="0.00" jamLengthInVehiclesSum="0" jamLengthInMetersSum="0.00" meanHaltingDuration="0.00" maxHaltingDuration="0.00" haltingDurationSum="0.00" meanIntervalHaltingDuration="0.00" maxIntervalHaltingDuration="0.00" intervalHaltingDurationSum="0.00" startedHalts="0.00" meanVehicleNumber="32.02" maxVehicleNumber="34" />
   <interval begin="780.00" end="840.00" id="mainline_up_0_2" sampledSeconds="2044.17" nVehEntered="23" nVehLeft="27" nVehSeen="62" meanSpeed="8.26" meanTimeLoss="16.79" meanOccupancy="21.24" maxOccupancy="24.50" meanMaxJamLengthInVehicles="2.52" meanMaxJamLengthInMeters="19.14" maxJamLengthInVehicles="9" maxJamLengthInMeters="72.36" jamLengthInVehiclesSum="162" jamLengthInMetersSum="1210.35" meanHaltingDuration="4.93" maxHaltingDuration="11.00" haltingDurationSum="217.00" meanIntervalHaltingDuration="4.45" maxIntervalHaltingDuration="11.00" intervalHaltingDurationSum="196.00" startedHalts="37.00" meanVehicleNumber="34.28" maxVehicleNumber="39" />
   <interval begin="780.00" end="840.00" id="mainline_up_1_2" sampledSeconds="2073.44" nVehEntered="42" nVehLeft="41" nVehSeen="74" meanSpeed="9.68" meanTimeLoss="12.66" meanOccupancy="21.55" maxOccupancy="23.24" meanMaxJamLengthInVehicles="0.00" meanMaxJamLengthInMeters="0.00" maxJamLengthInVehicles="0" maxJamLengthInMeters="0.00" jamLengthInVehiclesSum="0" jamLengthInMetersSum="0.00" meanHaltingDuration="1.00" maxHaltingDuration="1.00" haltingDurationSum="6.00" meanIntervalHaltingDuration="0.83" maxIntervalHaltingDuration="1.00" intervalHaltingDurationSum="5.00" startedHalts="5.00" meanVehicleNumber="34.98" maxVehicleNumber="38" />
   <interval begin="780.00" end="840.00" id="mainline_up_2_2" sampledSeconds="2034.02" nVehEntered="40" nVehLeft="41" nVehSeen="74" meanSpeed="11.87" meanTimeLoss="9.06" meanOccupancy="21.17" maxOccupancy="23.24" meanMaxJamLengthInVehicles="0.00" meanMaxJamLengthInMeters="0.00" maxJamLengthInVehicles="0" maxJamLengthInMeters="0.00" jamLengthInVehiclesSum="0" jamLengthInMetersSum="0.00" meanHaltingDuration="0.00" maxHaltingDuration="0.00" haltingDurationSum="0.00" meanIntervalHaltingDuration="0.00" maxIntervalHaltingDuration="0.00" intervalHaltingDurationSum="0.00" startedHalts="0.00" meanVehicleNumber="34.52" maxVehicleNumber="38" />
   <interval begin="840.00" end="900.00" id="mainline_up_0_2" sampledSeconds="2221.27" nVehEntered="28" nVehLeft="27" nVehSeen="63" meanSpeed="6.24" meanTimeLoss="19.30" meanOccupancy="23.11" maxOccupancy="24.80" meanMaxJamLengthInVehicles="5.20" meanMaxJamLengthInMeters="40.61" maxJamLengthInVehicles="11" maxJamLengthInMeters="90.87" jamLengthInVehiclesSum="414" jamLengthInMetersSum="3126.33" meanHaltingDuration="4.47" maxHaltingDuration="14.00" haltingDurationSum="519.00" meanIntervalHaltingDuration="4.06" maxIntervalHaltingDuration="14.00" intervalHaltingDurationSum="471.00" startedHalts="115.00" meanVehicleNumber="37.25" maxVehicleNumber="40" />
   <interval begin="840.00" end="900.00" id="mainline_up_1_2" sampledSeconds="1952.48" nVehEntered="52" nVehLeft="47" nVehSeen="85" meanSpeed="10.11" meanTimeLoss="6.48" meanOccupancy="20.32" maxOccupancy="24.01" meanMaxJamLengthInVehicles="0.02" meanMaxJamLengthInMeters="0.08" maxJamLengthInVehicles="1" maxJamLengthInMeters="5.00" jamLengthInVehiclesSum="1" jamLengthInMetersSum="5.00" meanHaltingDuration="1.08" maxHaltingDuration="2.00" haltingDurationSum="13.00" meanIntervalHaltingDuration="1.08" maxIntervalHaltingDuration="2.00" intervalHaltingDurationSum="13.00" startedHalts="12.00" meanVehicleNumber="33.02" maxVehicleNumber="39" />
   <interval begin="840.00" end="900.00" id="mainline_up_2_2" sampledSeconds="1883.92" nVehEntered="42" nVehLeft="40" nVehSeen="75" meanSpeed="12.03" meanTimeLoss="3.64" meanOccupancy="19.59" maxOccupancy="21.98" meanMaxJamLengthInVehicles="0.00" meanMaxJamLengthInMeters="0.00" maxJamLengthInVehicles="0" maxJamLengthInMeters="0.00" jamLengthInVehiclesSum="0" jamLengthInMetersSum="0.00" meanHaltingDuration="0.00" maxHaltingDuration="0.00" haltingDurationSum="0.00" meanIntervalHaltingDuration="0.00" maxIntervalHaltingDuration="0.00" intervalHaltingDurationSum="0.00" startedHalts="0.00" meanVehicleNumber="31.93" maxVehicleNumber="36" />