<?xml version="1.0" encoding="UTF-8"?>

<!-- generated on 03/05/19 13:34:00 by Eclipse SUMO Version 1.0.1
<configuration xmlns:xsi="http://www.w3.org/2001/XMLSchema-instance" xsi:noNamespaceSchemaLocation="http://sumo.dlr.de/xsd/sumoConfiguration.xsd">

    <input>
        <net-file value="./Project/ramp.net.xml"/>
        <route-files value="./Project/ramp.rou.xml"/>
        <additional-files value="./Project/ramp.add.xml"/>
    </input>

    <time>
        <begin value="0"/>
    </time>

    <report>
        <verbose value="false"/>
        <no-step-log value="true"/>
    </report>

    <traci_server>
        <remote-port value="35779"/>
    </traci_server>

    <random_number>
        <seed value="1529305573"/>
    </random_number>

    <gui_only>
        <quit-on-end value="true"/>
        <start value="true"/>
    </gui_only>

</configuration>
-->

<detector xmlns:xsi="http://www.w3.org/2001/XMLSchema-instance" xsi:noNamespaceSchemaLocation="http://sumo.dlr.de/xsd/det_e2_file.xsd">
   <interval begin="0.00" end="60.00" id="mainline_up_0_2" sampledSeconds="232.29" nVehEntered="15" nVehLeft="3" nVehSeen="15" meanSpeed="19.06" meanTimeLoss="1.10" meanOccupancy="0.99" maxOccupancy="3.00" meanMaxJamLengthInVehicles="0.00" meanMaxJamLengthInMeters="0.00" maxJamLengthInVehicles="0" maxJamLengthInMeters="0.00" jamLengthInVehiclesSum="0" jamLengthInMetersSum="0.00" meanHaltingDuration="0.00" maxHaltingDuration="0.00" haltingDurationSum="0.00" meanIntervalHaltingDuration="0.00" maxIntervalHaltingDuration="0.00" intervalHaltingDurationSum="0.00" startedHalts="0.00" meanVehicleNumber="3.95" maxVehicleNumber="12" />
   <interval begin="0.00" end="60.00" id="mainline_up_1_2" sampledSeconds="224.03" nVehEntered="20" nVehLeft="7" nVehSeen="20" meanSpeed="20.28" meanTimeLoss="0.94" meanOccupancy="0.96" maxOccupancy="3.25" meanMaxJamLengthInVehicles="0.00" meanMaxJamLengthInMeters="0.00" maxJamLengthInVehicles="0" maxJamLengthInMeters="0.00" jamLengthInVehiclesSum="0" jamLengthInMetersSum="0.00" meanHaltingDuration="0.00" maxHaltingDuration="0.00" haltingDurationSum="0.00" meanIntervalHaltingDuration="0.00" maxIntervalHaltingDuration="0.00" intervalHaltingDurationSum="0.00" startedHalts="0.00" meanVehicleNumber="3.85" maxVehicleNumber="13" />
   <interval begin="0.00" end="60.00" id="mainline_up_2_2" sampledSeconds="267.41" nVehEntered="16" nVehLeft="4" nVehSeen="16" meanSpeed="21.71" meanTimeLoss="1.11" meanOccupancy="1.14" maxOccupancy="3.50" meanMaxJamLengthInVehicles="0.00" meanMaxJamLengthInMeters="0.00" maxJamLengthInVehicles="0" maxJamLengthInMeters="0.00" jamLengthInVehiclesSum="0" jamLengthInMetersSum="0.00" meanHaltingDuration="0.00" maxHaltingDuration="0.00" haltingDurationSum="0.00" meanIntervalHaltingDuration="0.00" maxIntervalHaltingDuration="0.00" intervalHaltingDurationSum="0.00" startedHalts="0.00" meanVehicleNumber="4.58" maxVehicleNumber="14" />
   <interval begin="60.00" end="120.00" id="mainline_up_0_2" sampledSeconds="1221.62" nVehEntered="30" nVehLeft="13" nVehSeen="42" meanSpeed="18.77" meanTimeLoss="2.06" meanOccupancy="5.12" maxOccupancy="7.50" meanMaxJamLengthInVehicles="0.00" meanMaxJamLengthInMeters="0.00" maxJamLengthInVehicles="0" maxJamLengthInMeters="0.00" jamLengthInVehiclesSum="0" jamLengthInMetersSum="0.00" meanHaltingDuration="0.00" maxHaltingDuration="0.00" haltingDurationSum="0.00" meanIntervalHaltingDuration="0.00" maxIntervalHaltingDuration="0.00" intervalHaltingDurationSum="0.00" startedHalts="0.00" meanVehicleNumber="20.52" maxVehicleNumber="30" />
   <interval begin="60.00" end="120.00" id="mainline_up_1_2" sampledSeconds="1568.01" nVehEntered="49" nVehLeft="26" nVehSeen="62" meanSpeed="20.02" meanTimeLoss="2.17" meanOccupancy="6.58" maxOccupancy="9.25" meanMaxJamLengthInVehicles="0.00" meanMaxJamLengthInMeters="0.00" maxJamLengthInVehicles="0" maxJamLengthInMeters="0.00" jamLengthInVehiclesSum="0" jamLengthInMetersSum="0.00" meanHaltingDuration="0.00" maxHaltingDuration="0.00" haltingDurationSum="0.00" meanIntervalHaltingDuration="0.00" maxIntervalHaltingDuration="0.00" intervalHaltingDurationSum="0.00" startedHalts="0.00" meanVehicleNumber="26.43" maxVehicleNumber="37" />
   <interval begin="60.00" end="120.00" id="mainline_up_2_2" sampledSeconds="1871.44" nVehEntered="41" nVehLeft="7" nVehSeen="53" meanSpeed="20.96" meanTimeLoss="3.35" meanOccupancy="7.84" maxOccupancy="11.50" meanMaxJamLengthInVehicles="0.00" meanMaxJamLengthInMeters="0.00" maxJamLengthInVehicles="0" maxJamLengthInMeters="0.00" jamLengthInVehiclesSum="0" jamLengthInMetersSum="0.00" meanHaltingDuration="0.00" maxHaltingDuration="0.00" haltingDurationSum="0.00" meanIntervalHaltingDuration="0.00" maxIntervalHaltingDuration="0.00" intervalHaltingDurationSum="0.00" startedHalts="0.00" meanVehicleNumber="31.43" maxVehicleNumber="46" />
   <interval begin="120.00" end="180.00" id="mainline_up_0_2" sampledSeconds="2038.51" nVehEntered="28" nVehLeft="19" nVehSeen="57" meanSpeed="18.59" meanTimeLoss="2.81" meanOccupancy="8.51" maxOccupancy="9.50" meanMaxJamLengthInVehicles="0.00" meanMaxJamLengthInMeters="0.00" maxJamLengthInVehicles="0" maxJamLengthInMeters="0.00" jamLengthInVehiclesSum="0" jamLengthInMetersSum="0.00" meanHaltingDuration="0.00" maxHaltingDuration="0.00" haltingDurationSum="0.00" meanIntervalHaltingDuration="0.00" maxIntervalHaltingDuration="0.00" intervalHaltingDurationSum="0.00" startedHalts="0.00" meanVehicleNumber="34.25" maxVehicleNumber="39" />
   <interval begin="120.00" end="180.00" id="mainline_up_1_2" sampledSeconds="2441.76" nVehEntered="44" nVehLeft="34" nVehSeen="80" meanSpeed="19.90" meanTimeLoss="2.54" meanOccupancy="10.16" maxOccupancy="11.75" meanMaxJamLengthInVehicles="0.00" meanMaxJamLengthInMeters="0.00" maxJamLengthInVehicles="0" maxJamLengthInMeters="0.00" jamLengthInVehiclesSum="0" jamLengthInMetersSum="0.00" meanHaltingDuration="0.00" maxHaltingDuration="0.00" haltingDurationSum="0.00" meanIntervalHaltingDuration="0.00" maxIntervalHaltingDuration="0.00" intervalHaltingDurationSum="0.00" startedHalts="0.00" meanVehicleNumber="41.08" maxVehicleNumber="47" />
   <interval begin="120.00" end="180.00" id="mainline_up_2_2" sampledSeconds="2898.04" nVehEntered="39" nVehLeft="34" nVehSeen="85" meanSpeed="21.22" meanTimeLoss="3.21" meanOccupancy="12.06" maxOccupancy="13.25" meanMaxJamLengthInVehicles="0.00" meanMaxJamLengthInMeters="0.00" maxJamLengthInVehicles="0" maxJamLengthInMeters="0.00" jamLengthInVehiclesSum="0" jamLengthInMetersSum="0.00" meanHaltingDuration="0.00" maxHaltingDuration="0.00" haltingDurationSum="0.00" meanIntervalHaltingDuration="0.00" maxIntervalHaltingDuration="0.00" intervalHaltingDurationSum="0.00" startedHalts="0.00" meanVehicleNumber="48.68" maxVehicleNumber="53" />
   <interval begin="180.00" end="240.00" id="mainline_up_0_2" sampledSeconds="2283.70" nVehEntered="40" nVehLeft="40" nVehSeen="78" meanSpeed="16.52" meanTimeLoss="2.18" meanOccupancy="9.50" maxOccupancy="11.00" meanMaxJamLengthInVehicles="0.00" meanMaxJamLengthInMeters="0.00" maxJamLengthInVehicles="0" maxJamLengthInMeters="0.00" jamLengthInVehiclesSum="0" jamLengthInMetersSum="0.00" meanHaltingDuration="0.00" maxHaltingDuration="0.00" haltingDurationSum="0.00" meanIntervalHaltingDuration="0.00" maxIntervalHaltingDuration="0.00" intervalHaltingDurationSum="0.00" startedHalts="0.00" meanVehicleNumber="38.38" maxVehicleNumber="44" />
   <interval begin="180.00" end="240.00" id="mainline_up_1_2" sampledSeconds="2752.62" nVehEntered="67" nVehLeft="63" nVehSeen="113" meanSpeed="16.95" meanTimeLoss="2.17" meanOccupancy="11.42" maxOccupancy="12.75" meanMaxJamLengthInVehicles="0.00" meanMaxJamLengthInMeters="0.00" maxJamLengthInVehicles="0" maxJamLengthInMeters="0.00" jamLengthInVehiclesSum="0" jamLengthInMetersSum="0.00" meanHaltingDuration="0.00" maxHaltingDuration="0.00" haltingDurationSum="0.00" meanIntervalHaltingDuration="0.00" maxIntervalHaltingDuration="0.00" intervalHaltingDurationSum="0.00" startedHalts="0.00" meanVehicleNumber="46.33" maxVehicleNumber="51" />
   <interval begin="180.00" end="240.00" id="mainline_up_2_2" sampledSeconds="2781.61" nVehEntered="39" nVehLeft="44" nVehSeen="90" meanSpeed="17.84" meanTimeLoss="2.41" meanOccupancy="11.57" maxOccupancy="12.89" meanMaxJamLengthInVehicles="0.00" meanMaxJamLengthInMeters="0.00" maxJamLengthInVehicles="0" maxJamLengthInMeters="0.00" jamLengthInVehiclesSum="0" jamLengthInMetersSum="0.00" meanHaltingDuration="0.00" maxHaltingDuration="0.00" haltingDurationSum="0.00" meanIntervalHaltingDuration="0.00" maxIntervalHaltingDuration="0.00" intervalHaltingDurationSum="0.00" startedHalts="0.00" meanVehicleNumber="46.80" maxVehicleNumber="52" />
   <interval begin="240.00" end="300.00" id="mainline_up_0_2" sampledSeconds="2626.54" nVehEntered="51" nVehLeft="43" nVehSeen="89" meanSpeed="16.99" meanTimeLoss="2.82" meanOccupancy="10.93" maxOccupancy="12.75" meanMaxJamLengthInVehicles="0.00" meanMaxJamLengthInMeters="0.00" maxJamLengthInVehicles="0" maxJamLengthInMeters="0.00" jamLengthInVehiclesSum="0" jamLengthInMetersSum="0.00" meanHaltingDuration="0.00" maxHaltingDuration="0.00" haltingDurationSum="0.00" meanIntervalHaltingDuration="0.00" maxIntervalHaltingDuration="0.00" intervalHaltingDurationSum="0.00" startedHalts="0.00" meanVehicleNumber="44.12" maxVehicleNumber="51" />
   <interval begin="240.00" end="300.00" id="mainline_up_1_2" sampledSeconds="2937.50" nVehEntered="69" nVehLeft="64" nVehSeen="119" meanSpeed="18.01" meanTimeLoss="2.10" meanOccupancy="12.21" maxOccupancy="13.68" meanMaxJamLengthInVehicles="0.00" meanMaxJamLengthInMeters="0.00" maxJamLengthInVehicles="0" maxJamLengthInMeters="0.00" jamLengthInVehiclesSum="0" jamLengthInMetersSum="0.00" meanHaltingDuration="0.00" maxHaltingDuration="0.00" haltingDurationSum="0.00" meanIntervalHaltingDuration="0.00" maxIntervalHaltingDuration="0.00" intervalHaltingDurationSum="0.00" startedHalts="0.00" meanVehicleNumber="49.43" maxVehicleNumber="55" />
   <interval begin="240.00" end="300.00" id="mainline_up_2_2" sampledSeconds="2834.45" nVehEntered="38" nVehLeft="34" nVehSeen="84" meanSpeed="18.73" meanTimeLoss="2.22" meanOccupancy="11.79" maxOccupancy="12.50" meanMaxJamLengthInVehicles="0.00" meanMaxJamLengthInMeters="0.00" maxJamLengthInVehicles="0" maxJamLengthInMeters="0.00" jamLengthInVehiclesSum="0" jamLengthInMetersSum="0.00" meanHaltingDuration="0.00" maxHaltingDuration="0.00" haltingDurationSum="0.00" meanIntervalHaltingDuration="0.00" maxIntervalHaltingDuration="0.00" intervalHaltingDurationSum="0.00" startedHalts="0.00" meanVehicleNumber="47.60" maxVehicleNumber="51" />
   <interval begin="300.00" end="360.00" id="mainline_up_0_2" sampledSeconds="2433.42" nVehEntered="42" nVehLeft="44" nVehSeen="88" meanSpeed="17.46" meanTimeLoss="2.76" meanOccupancy="10.12" maxOccupancy="12.50" meanMaxJamLengthInVehicles="0.00" meanMaxJamLengthInMeters="0.00" maxJamLengthInVehicles="0" maxJamLengthInMeters="0.00" jamLengthInVehiclesSum="0" jamLengthInMetersSum="0.00" meanHaltingDuration="0.00" maxHaltingDuration="0.00" haltingDurationSum="0.00" meanIntervalHaltingDuration="0.00" maxIntervalHaltingDuration="0.00" intervalHaltingDurationSum="0.00" startedHalts="0.00" meanVehicleNumber="40.92" maxVehicleNumber="50" />
   <interval begin="300.00" end="360.00" id="mainline_up_1_2" sampledSeconds="3156.47" nVehEntered="63" nVehLeft="71" nVehSeen="118" meanSpeed="18.28" meanTimeLoss="2.52" meanOccupancy="13.11" maxOccupancy="14.25" meanMaxJamLengthInVehicles="0.00" meanMaxJamLengthInMeters="0.00" maxJamLengthInVehicles="0" maxJamLengthInMeters="0.00" jamLengthInVehiclesSum="0" jamLengthInMetersSum="0.00" meanHaltingDuration="0.00" maxHaltingDuration="0.00" haltingDurationSum="0.00" meanIntervalHaltingDuration="0.00" maxIntervalHaltingDuration="0.00" intervalHaltingDurationSum="0.00" startedHalts="0.00" meanVehicleNumber="53.08" maxVehicleNumber="58" />
   <interval begin="300.00" end="360.00" id="mainline_up_2_2" sampledSeconds="3213.35" nVehEntered="51" nVehLeft="48" nVehSeen="101" meanSpeed="19.58" meanTimeLoss="1.68" meanOccupancy="13.35" maxOccupancy="14.00" meanMaxJamLengthInVehicles="0.00" meanMaxJamLengthInMeters="0.00" maxJamLengthInVehicles="0" maxJamLengthInMeters="0.00" jamLengthInVehiclesSum="0" jamLengthInMetersSum="0.00" meanHaltingDuration="0.00" maxHaltingDuration="0.00" haltingDurationSum="0.00" meanIntervalHaltingDuration="0.00" maxIntervalHaltingDuration="0.00" intervalHaltingDurationSum="0.00" startedHalts="0.00" meanVehicleNumber="54.10" maxVehicleNumber="57" />
   <interval begin="360.00" end="420.00" id="mainline_up_0_2" sampledSeconds="2749.33" nVehEntered="45" nVehLeft="47" nVehSeen="89" meanSpeed="16.92" meanTimeLoss="2.99" meanOccupancy="11.43" maxOccupancy="13.00" meanMaxJamLengthInVehicles="0.00" meanMaxJamLengthInMeters="0.00" maxJamLengthInVehicles="0" maxJamLengthInMeters="0.00" jamLengthInVehiclesSum="0" jamLengthInMetersSum="0.00" meanHaltingDuration="0.00" maxHaltingDuration="0.00" haltingDurationSum="0.00" meanIntervalHaltingDuration="0.00" maxIntervalHaltingDuration="0.00" intervalHaltingDurationSum="0.00" startedHalts="0.00" meanVehicleNumber="46.23" maxVehicleNumber="52" />
   <interval begin="360.00" end="420.00" id="mainline_up_1_2" sampledSeconds="3075.19" nVehEntered="65" nVehLeft="62" nVehSeen="112" meanSpeed="17.58" meanTimeLoss="2.18" meanOccupancy="12.77" maxOccupancy="13.75" meanMaxJamLengthInVehicles="0.00" meanMaxJamLengthInMeters="0.00" maxJamLengthInVehicles="0" maxJamLengthInMeters="0.00" jamLengthInVehiclesSum="0" jamLengthInMetersSum="0.00" meanHaltingDuration="0.00" maxHaltingDuration="0.00" haltingDurationSum="0.00" meanIntervalHaltingDuration="0.00" maxIntervalHaltingDuration="0.00" intervalHaltingDurationSum="0.00" startedHalts="0.00" meanVehicleNumber="51.75" maxVehicleNumber="56" />
   <interval begin="360.00" end="420.00" id="mainline_up_2_2" sampledSeconds="3098.14" nVehEntered="40" nVehLeft="42" nVehSeen="93" meanSpeed="18.49" meanTimeLoss="1.64" meanOccupancy="12.88" maxOccupancy="13.62" meanMaxJamLengthInVehicles="0.00" meanMaxJamLengthInMeters="0.00" maxJamLengthInVehicles="0" maxJamLengthInMeters="0.00" jamLengthInVehiclesSum="0" jamLengthInMetersSum="0.00" meanHaltingDuration="0.00" maxHaltingDuration="0.00" haltingDurationSum="0.00" meanIntervalHaltingDuration="0.00" maxIntervalHaltingDuration="0.00" intervalHaltingDurationSum="0.00" startedHalts="0.00" meanVehicleNumber="52.05" maxVehicleNumber="55" />
   <interval begin="420.00" end="480.00" id="mainline_up_0_2" sampledSeconds="3281.25" nVehEntered="51" nVehLeft="39" nVehSeen="93" meanSpeed="15.45" meanTimeLoss="3.72" meanOccupancy="13.64" maxOccupancy="15.50" meanMaxJamLengthInVehicles="0.00" meanMaxJamLengthInMeters="0.00" maxJamLengthInVehicles="0" maxJamLengthInMeters="0.00" jamLengthInVehiclesSum="0" jamLengthInMetersSum="0.00" meanHaltingDuration="0.00" maxHaltingDuration="0.00" haltingDurationSum="0.00" meanIntervalHaltingDuration="0.00" maxIntervalHaltingDuration="0.00" intervalHaltingDurationSum="0.00" startedHalts="0.00" meanVehicleNumber="55.10" maxVehicleNumber="62" />
   <interval begin="420.00" end="480.00" id="mainline_up_1_2" sampledSeconds="3232.02" nVehEntered="62" nVehLeft="55" nVehSeen="112" meanSpeed="15.70" meanTimeLoss="2.78" meanOccupancy="13.43" maxOccupancy="14.25" meanMaxJamLengthInVehicles="0.00" meanMaxJamLengthInMeters="0.00" maxJamLengthInVehicles="0" maxJamLengthInMeters="0.00" jamLengthInVehiclesSum="0" jamLengthInMetersSum="0.00" meanHaltingDuration="0.00" maxHaltingDuration="0.00" haltingDurationSum="0.00" meanIntervalHaltingDuration="0.00" maxIntervalHaltingDuration="0.00" intervalHaltingDurationSum="0.00" startedHalts="0.00" meanVehicleNumber="54.33" maxVehicleNumber="58" />
   <interval begin="420.00" end="480.00" id="mainline_up_2_2" sampledSeconds="2691.34" nVehEntered="30" nVehLeft="35" nVehSeen="81" meanSpeed="16.37" meanTimeLoss="2.41" meanOccupancy="11.21" maxOccupancy="12.75" meanMaxJamLengthInVehicles="0.00" meanMaxJamLengthInMeters="0.00" maxJamLengthInVehicles="0" maxJamLengthInMeters="0.00" jamLengthInVehiclesSum="0" jamLengthInMetersSum="0.00" meanHaltingDuration="0.00" maxHaltingDuration="0.00" haltingDurationSum="0.00" meanIntervalHaltingDuration="0.00" maxIntervalHaltingDuration="0.00" intervalHaltingDurationSum="0.00" startedHalts="0.00" meanVehicleNumber="45.22" maxVehicleNumber="52" />
   <interval begin="480.00" end="540.00" id="mainline_up_0_2" sampledSeconds="3645.11" nVehEntered="45" nVehLeft="30" nVehSeen="99" meanSpeed="12.73" meanTimeLoss="2.53" meanOccupancy="15.15" maxOccupancy="17.33" meanMaxJamLengthInVehicles="0.00" meanMaxJamLengthInMeters="0.00" maxJamLengthInVehicles="0" maxJamLengthInMeters="0.00" jamLengthInVehiclesSum="0" jamLengthInMetersSum="0.00" meanHaltingDuration="0.00" maxHaltingDuration="0.00" haltingDurationSum="0.00" meanIntervalHaltingDuration="0.00" maxIntervalHaltingDuration="0.00" intervalHaltingDurationSum="0.00" startedHalts="0.00" meanVehicleNumber="61.12" maxVehicleNumber="70" />
   <interval begin="480.00" end="540.00" id="mainline_up_1_2" sampledSeconds="3518.34" nVehEntered="56" nVehLeft="47" nVehSeen="113" meanSpeed="12.81" meanTimeLoss="2.23" meanOccupancy="14.64" maxOccupancy="16.75" meanMaxJamLengthInVehicles="0.00" meanMaxJamLengthInMeters="0.00" maxJamLengthInVehicles="0" maxJamLengthInMeters="0.00" jamLengthInVehiclesSum="0" jamLengthInMetersSum="0.00" meanHaltingDuration="0.00" maxHaltingDuration="0.00" haltingDurationSum="0.00" meanIntervalHaltingDuration="0.00" maxIntervalHaltingDuration="0.00" intervalHaltingDurationSum="0.00" startedHalts="0.00" meanVehicleNumber="59.02" maxVehicleNumber="67" />
   <interval begin="480.00" end="540.00" id="mainline_up_2_2" sampledSeconds="2552.84" nVehEntered="34" nVehLeft="34" nVehSeen="80" meanSpeed="13.33" meanTimeLoss="1.87" meanOccupancy="10.63" maxOccupancy="11.50" meanMaxJamLengthInVehicles="0.00" meanMaxJamLengthInMeters="0.00" maxJamLengthInVehicles="0" maxJamLengthInMeters="0.00" jamLengthInVehiclesSum="0" jamLengthInMetersSum="0.00" meanHaltingDuration="0.00" maxHaltingDuration="0.00" haltingDurationSum="0.00" meanIntervalHaltingDuration="0.00" maxIntervalHaltingDuration="0.00" intervalHaltingDurationSum="0.00" startedHalts="0.00" meanVehicleNumber="42.88" maxVehicleNumber="46" />
   <interval begin="540.00" end="600.00" id="mainline_up_0_2" sampledSeconds="3943.83" nVehEntered="35" nVehLeft="42" nVehSeen="104" meanSpeed="14.76" meanTimeLoss="4.41" meanOccupancy="16.39" maxOccupancy="17.40" meanMaxJamLengthInVehicles="0.00" meanMaxJamLengthInMeters="0.00" maxJamLengthInVehicles="0" maxJamLengthInMeters="0.00" jamLengthInVehiclesSum="0" jamLengthInMetersSum="0.00" meanHaltingDuration="0.00" maxHaltingDuration="0.00" haltingDurationSum="0.00" meanIntervalHaltingDuration="0.00" maxIntervalHaltingDuration="0.00" intervalHaltingDurationSum="0.00" startedHalts="0.00" meanVehicleNumber="66.13" maxVehicleNumber="70" />
   <interval begin="540.00" end="600.00" id="mainline_up_1_2" sampledSeconds="3808.23" nVehEntered="52" nVehLeft="53" nVehSeen="118" meanSpeed="15.20" meanTimeLoss="3.39" meanOccupancy="15.81" maxOccupancy="16.75" meanMaxJamLengthInVehicles="0.00" meanMaxJamLengthInMeters="0.00" maxJamLengthInVehicles="0" maxJamLengthInMeters="0.00" jamLengthInVehiclesSum="0" jamLengthInMetersSum="0.00" meanHaltingDuration="0.00" maxHaltingDuration="0.00" haltingDurationSum="0.00" meanIntervalHaltingDuration="0.00" maxIntervalHaltingDuration="0.00" intervalHaltingDurationSum="0.00" startedHalts="0.00" meanVehicleNumber="63.97" maxVehicleNumber="68" />
   <interval begin="540.00" end="600.00" id="mainline_up_2_2" sampledSeconds="3030.49" nVehEntered="41" nVehLeft="30" nVehSeen="87" meanSpeed="15.94" meanTimeLoss="3.04" meanOccupancy="12.61" maxOccupancy="14.25" meanMaxJamLengthInVehicles="0.00" meanMaxJamLengthInMeters="0.00" maxJamLengthInVehicles="0" maxJamLengthInMeters="0.00" jamLengthInVehiclesSum="0" jamLengthInMetersSum="0.00" meanHaltingDuration="0.00" maxHaltingDuration="0.00" haltingDurationSum="0.00" meanIntervalHaltingDuration="0.00" maxIntervalHaltingDuration="0.00" intervalHaltingDurationSum="0.00" startedHalts="0.00" meanVehicleNumber="50.93" maxVehicleNumber="57" />
   <interval begin="600.00" end="660.00" id="mainline_up_0_2" sampledSeconds="3896.86" nVehEntered="43" nVehLeft="42" nVehSeen="105" meanSpeed="14.15" meanTimeLoss="3.25" meanOccupancy="16.20" maxOccupancy="17.31" meanMaxJamLengthInVehicles="0.00" meanMaxJamLengthInMeters="0.00" maxJamLengthInVehicles="0" maxJamLengthInMeters="0.00" jamLengthInVehiclesSum="0" jamLengthInMetersSum="0.00" meanHaltingDuration="0.00" maxHaltingDuration="0.00" haltingDurationSum="0.00" meanIntervalHaltingDuration="0.00" maxIntervalHaltingDuration="0.00" intervalHaltingDurationSum="0.00" startedHalts="0.00" meanVehicleNumber="65.42" maxVehicleNumber="71" />
   <interval begin="600.00" end="660.00" id="mainline_up_1_2" sampledSeconds="3787.54" nVehEntered="51" nVehLeft="54" nVehSeen="116" meanSpeed="14.48" meanTimeLoss="2.61" meanOccupancy="15.74" maxOccupancy="16.75" meanMaxJamLengthInVehicles="0.00" meanMaxJamLengthInMeters="0.00" maxJamLengthInVehicles="0" maxJamLengthInMeters="0.00" jamLengthInVehiclesSum="0" jamLengthInMetersSum="0.00" meanHaltingDuration="0.00" maxHaltingDuration="0.00" haltingDurationSum="0.00" meanIntervalHaltingDuration="0.00" maxIntervalHaltingDuration="0.00" intervalHaltingDurationSum="0.00" startedHalts="0.00" meanVehicleNumber="63.58" maxVehicleNumber="67" />
   <interval begin="600.00" end="660.00" id="mainline_up_2_2" sampledSeconds="3481.82" nVehEntered="38" nVehLeft="33" nVehSeen="95" meanSpeed="14.91" meanTimeLoss="2.67" meanOccupancy="14.48" maxOccupancy="15.50" meanMaxJamLengthInVehicles="0.00" meanMaxJamLengthInMeters="0.00" maxJamLengthInVehicles="0" maxJamLengthInMeters="0.00" jamLengthInVehiclesSum="0" jamLengthInMetersSum="0.00" meanHaltingDuration="0.00" maxHaltingDuration="0.00" haltingDurationSum="0.00" meanIntervalHaltingDuration="0.00" maxIntervalHaltingDuration="0.00" intervalHaltingDurationSum="0.00" startedHalts="0.00" meanVehicleNumber="58.43" maxVehicleNumber="63" />
</detector>
