<?xml version="1.0" encoding="UTF-8"?>

<!-- generated on 03/03/19 03:49:43 by Eclipse SUMO Version 1.0.1
<configuration xmlns:xsi="http://www.w3.org/2001/XMLSchema-instance" xsi:noNamespaceSchemaLocation="http://sumo.dlr.de/xsd/sumoConfiguration.xsd">

    <input>
        <net-file value="./Project/ramp.net.xml"/>
        <route-files value="./Project/ramp.rou.xml"/>
        <additional-files value="./Project/ramp.add.xml"/>
    </input>

    <time>
        <begin value="0"/>
    </time>

    <report>
        <verbose value="true"/>
        <no-step-log value="true"/>
    </report>

    <traci_server>
        <remote-port value="60717"/>
    </traci_server>

    <random_number>
        <seed value="406015130"/>
    </random_number>

    <gui_only>
        <quit-on-end value="true"/>
        <start value="true"/>
    </gui_only>

</configuration>
-->

<detector xmlns:xsi="http://www.w3.org/2001/XMLSchema-instance" xsi:noNamespaceSchemaLocation="http://sumo.dlr.de/xsd/det_e2_file.xsd">
   <interval begin="0.00" end="60.00" id="mainline_up_0_2" sampledSeconds="241.66" nVehEntered="16" nVehLeft="3" nVehSeen="16" meanSpeed="19.90" meanTimeLoss="0.85" meanOccupancy="1.03" maxOccupancy="3.49" meanMaxJamLengthInVehicles="0.00" meanMaxJamLengthInMeters="0.00" maxJamLengthInVehicles="0" maxJamLengthInMeters="0.00" jamLengthInVehiclesSum="0" jamLengthInMetersSum="0.00" meanHaltingDuration="0.00" maxHaltingDuration="0.00" haltingDurationSum="0.00" meanIntervalHaltingDuration="0.00" maxIntervalHaltingDuration="0.00" intervalHaltingDurationSum="0.00" startedHalts="0.00" meanVehicleNumber="4.12" maxVehicleNumber="14" />
   <interval begin="0.00" end="60.00" id="mainline_up_1_2" sampledSeconds="256.76" nVehEntered="18" nVehLeft="5" nVehSeen="18" meanSpeed="20.25" meanTimeLoss="1.09" meanOccupancy="1.10" maxOccupancy="3.50" meanMaxJamLengthInVehicles="0.00" meanMaxJamLengthInMeters="0.00" maxJamLengthInVehicles="0" maxJamLengthInMeters="0.00" jamLengthInVehiclesSum="0" jamLengthInMetersSum="0.00" meanHaltingDuration="0.00" maxHaltingDuration="0.00" haltingDurationSum="0.00" meanIntervalHaltingDuration="0.00" maxIntervalHaltingDuration="0.00" intervalHaltingDurationSum="0.00" startedHalts="0.00" meanVehicleNumber="4.42" maxVehicleNumber="14" />
   <interval begin="0.00" end="60.00" id="mainline_up_2_2" sampledSeconds="249.61" nVehEntered="16" nVehLeft="2" nVehSeen="16" meanSpeed="21.61" meanTimeLoss="0.82" meanOccupancy="1.07" maxOccupancy="3.50" meanMaxJamLengthInVehicles="0.00" meanMaxJamLengthInMeters="0.00" maxJamLengthInVehicles="0" maxJamLengthInMeters="0.00" jamLengthInVehiclesSum="0" jamLengthInMetersSum="0.00" meanHaltingDuration="0.00" maxHaltingDuration="0.00" haltingDurationSum="0.00" meanIntervalHaltingDuration="0.00" maxIntervalHaltingDuration="0.00" intervalHaltingDurationSum="0.00" startedHalts="0.00" meanVehicleNumber="4.27" maxVehicleNumber="14" />
   <interval begin="60.00" end="120.00" id="mainline_up_0_2" sampledSeconds="1277.21" nVehEntered="28" nVehLeft="13" nVehSeen="41" meanSpeed="18.94" meanTimeLoss="2.56" meanOccupancy="5.34" maxOccupancy="7.00" meanMaxJamLengthInVehicles="0.00" meanMaxJamLengthInMeters="0.00" maxJamLengthInVehicles="0" maxJamLengthInMeters="0.00" jamLengthInVehiclesSum="0" jamLengthInMetersSum="0.00" meanHaltingDuration="0.00" maxHaltingDuration="0.00" haltingDurationSum="0.00" meanIntervalHaltingDuration="0.00" maxIntervalHaltingDuration="0.00" intervalHaltingDurationSum="0.00" startedHalts="0.00" meanVehicleNumber="21.48" maxVehicleNumber="28" />
   <interval begin="60.00" end="120.00" id="mainline_up_1_2" sampledSeconds="1616.79" nVehEntered="48" nVehLeft="22" nVehSeen="61" meanSpeed="19.52" meanTimeLoss="2.39" meanOccupancy="6.77" maxOccupancy="10.00" meanMaxJamLengthInVehicles="0.00" meanMaxJamLengthInMeters="0.00" maxJamLengthInVehicles="0" maxJamLengthInMeters="0.00" jamLengthInVehiclesSum="0" jamLengthInMetersSum="0.00" meanHaltingDuration="0.00" maxHaltingDuration="0.00" haltingDurationSum="0.00" meanIntervalHaltingDuration="0.00" maxIntervalHaltingDuration="0.00" intervalHaltingDurationSum="0.00" startedHalts="0.00" meanVehicleNumber="27.20" maxVehicleNumber="41" />
   <interval begin="60.00" end="120.00" id="mainline_up_2_2" sampledSeconds="1621.60" nVehEntered="37" nVehLeft="8" nVehSeen="51" meanSpeed="20.65" meanTimeLoss="2.81" meanOccupancy="6.79" maxOccupancy="10.75" meanMaxJamLengthInVehicles="0.00" meanMaxJamLengthInMeters="0.00" maxJamLengthInVehicles="0" maxJamLengthInMeters="0.00" jamLengthInVehiclesSum="0" jamLengthInMetersSum="0.00" meanHaltingDuration="0.00" maxHaltingDuration="0.00" haltingDurationSum="0.00" meanIntervalHaltingDuration="0.00" maxIntervalHaltingDuration="0.00" intervalHaltingDurationSum="0.00" startedHalts="0.00" meanVehicleNumber="27.22" maxVehicleNumber="43" />
   <interval begin="120.00" end="180.00" id="mainline_up_0_2" sampledSeconds="1798.60" nVehEntered="29" nVehLeft="24" nVehSeen="57" meanSpeed="18.24" meanTimeLoss="2.89" meanOccupancy="7.49" maxOccupancy="8.25" meanMaxJamLengthInVehicles="0.00" meanMaxJamLengthInMeters="0.00" maxJamLengthInVehicles="0" maxJamLengthInMeters="0.00" jamLengthInVehiclesSum="0" jamLengthInMetersSum="0.00" meanHaltingDuration="0.00" maxHaltingDuration="0.00" haltingDurationSum="0.00" meanIntervalHaltingDuration="0.00" maxIntervalHaltingDuration="0.00" intervalHaltingDurationSum="0.00" startedHalts="0.00" meanVehicleNumber="30.22" maxVehicleNumber="34" />
   <interval begin="120.00" end="180.00" id="mainline_up_1_2" sampledSeconds="2629.02" nVehEntered="45" nVehLeft="36" nVehSeen="84" meanSpeed="19.12" meanTimeLoss="3.00" meanOccupancy="10.96" maxOccupancy="12.00" meanMaxJamLengthInVehicles="0.00" meanMaxJamLengthInMeters="0.00" maxJamLengthInVehicles="0" maxJamLengthInMeters="0.00" jamLengthInVehiclesSum="0" jamLengthInMetersSum="0.00" meanHaltingDuration="0.00" maxHaltingDuration="0.00" haltingDurationSum="0.00" meanIntervalHaltingDuration="0.00" maxIntervalHaltingDuration="0.00" intervalHaltingDurationSum="0.00" startedHalts="0.00" meanVehicleNumber="44.23" maxVehicleNumber="48" />
   <interval begin="120.00" end="180.00" id="mainline_up_2_2" sampledSeconds="2956.68" nVehEntered="42" nVehLeft="31" nVehSeen="85" meanSpeed="20.31" meanTimeLoss="3.89" meanOccupancy="12.30" maxOccupancy="14.00" meanMaxJamLengthInVehicles="0.00" meanMaxJamLengthInMeters="0.00" maxJamLengthInVehicles="0" maxJamLengthInMeters="0.00" jamLengthInVehiclesSum="0" jamLengthInMetersSum="0.00" meanHaltingDuration="0.00" maxHaltingDuration="0.00" haltingDurationSum="0.00" meanIntervalHaltingDuration="0.00" maxIntervalHaltingDuration="0.00" intervalHaltingDurationSum="0.00" startedHalts="0.00" meanVehicleNumber="49.70" maxVehicleNumber="56" />
   <interval begin="180.00" end="240.00" id="mainline_up_0_2" sampledSeconds="2308.94" nVehEntered="51" nVehLeft="28" nVehSeen="84" meanSpeed="15.88" meanTimeLoss="1.86" meanOccupancy="9.60" maxOccupancy="14.00" meanMaxJamLengthInVehicles="0.00" meanMaxJamLengthInMeters="0.00" maxJamLengthInVehicles="0" maxJamLengthInMeters="0.00" jamLengthInVehiclesSum="0" jamLengthInMetersSum="0.00" meanHaltingDuration="0.00" maxHaltingDuration="0.00" haltingDurationSum="0.00" meanIntervalHaltingDuration="0.00" maxIntervalHaltingDuration="0.00" intervalHaltingDurationSum="0.00" startedHalts="0.00" meanVehicleNumber="38.88" maxVehicleNumber="56" />
   <interval begin="180.00" end="240.00" id="mainline_up_1_2" sampledSeconds="2895.24" nVehEntered="64" nVehLeft="63" nVehSeen="112" meanSpeed="16.96" meanTimeLoss="1.84" meanOccupancy="12.03" maxOccupancy="12.97" meanMaxJamLengthInVehicles="0.00" meanMaxJamLengthInMeters="0.00" maxJamLengthInVehicles="0" maxJamLengthInMeters="0.00" jamLengthInVehiclesSum="0" jamLengthInMetersSum="0.00" meanHaltingDuration="0.00" maxHaltingDuration="0.00" haltingDurationSum="0.00" meanIntervalHaltingDuration="0.00" maxIntervalHaltingDuration="0.00" intervalHaltingDurationSum="0.00" startedHalts="0.00" meanVehicleNumber="48.67" maxVehicleNumber="52" />
   <interval begin="180.00" end="240.00" id="mainline_up_2_2" sampledSeconds="3067.94" nVehEntered="34" nVehLeft="54" nVehSeen="88" meanSpeed="17.98" meanTimeLoss="2.58" meanOccupancy="12.74" maxOccupancy="14.63" meanMaxJamLengthInVehicles="0.00" meanMaxJamLengthInMeters="0.00" maxJamLengthInVehicles="0" maxJamLengthInMeters="0.00" jamLengthInVehiclesSum="0" jamLengthInMetersSum="0.00" meanHaltingDuration="0.00" maxHaltingDuration="0.00" haltingDurationSum="0.00" meanIntervalHaltingDuration="0.00" maxIntervalHaltingDuration="0.00" intervalHaltingDurationSum="0.00" startedHalts="0.00" meanVehicleNumber="51.53" maxVehicleNumber="59" />
   <interval begin="240.00" end="300.00" id="mainline_up_0_2" sampledSeconds="3668.63" nVehEntered="32" nVehLeft="25" nVehSeen="88" meanSpeed="12.79" meanTimeLoss="2.05" meanOccupancy="15.25" maxOccupancy="15.75" meanMaxJamLengthInVehicles="0.00" meanMaxJamLengthInMeters="0.00" maxJamLengthInVehicles="0" maxJamLengthInMeters="0.00" jamLengthInVehiclesSum="0" jamLengthInMetersSum="0.00" meanHaltingDuration="0.00" maxHaltingDuration="0.00" haltingDurationSum="0.00" meanIntervalHaltingDuration="0.00" maxIntervalHaltingDuration="0.00" intervalHaltingDurationSum="0.00" startedHalts="0.00" meanVehicleNumber="61.47" maxVehicleNumber="64" />
   <interval begin="240.00" end="300.00" id="mainline_up_1_2" sampledSeconds="3317.01" nVehEntered="39" nVehLeft="29" nVehSeen="88" meanSpeed="12.86" meanTimeLoss="1.73" meanOccupancy="13.79" maxOccupancy="14.75" meanMaxJamLengthInVehicles="0.00" meanMaxJamLengthInMeters="0.00" maxJamLengthInVehicles="0" maxJamLengthInMeters="0.00" jamLengthInVehiclesSum="0" jamLengthInMetersSum="0.00" meanHaltingDuration="0.00" maxHaltingDuration="0.00" haltingDurationSum="0.00" meanIntervalHaltingDuration="0.00" maxIntervalHaltingDuration="0.00" intervalHaltingDurationSum="0.00" startedHalts="0.00" meanVehicleNumber="55.65" maxVehicleNumber="59" />
   <interval begin="240.00" end="300.00" id="mainline_up_2_2" sampledSeconds="2251.65" nVehEntered="27" nVehLeft="17" nVehSeen="61" meanSpeed="12.82" meanTimeLoss="1.80" meanOccupancy="9.39" maxOccupancy="11.00" meanMaxJamLengthInVehicles="0.00" meanMaxJamLengthInMeters="0.00" maxJamLengthInVehicles="0" maxJamLengthInMeters="0.00" jamLengthInVehiclesSum="0" jamLengthInMetersSum="0.00" meanHaltingDuration="0.00" maxHaltingDuration="0.00" haltingDurationSum="0.00" meanIntervalHaltingDuration="0.00" maxIntervalHaltingDuration="0.00" intervalHaltingDurationSum="0.00" startedHalts="0.00" meanVehicleNumber="37.85" maxVehicleNumber="45" />
   <interval begin="300.00" end="360.00" id="mainline_up_0_2" sampledSeconds="4002.97" nVehEntered="31" nVehLeft="26" nVehSeen="94" meanSpeed="12.46" meanTimeLoss="2.26" meanOccupancy="16.65" maxOccupancy="17.00" meanMaxJamLengthInVehicles="0.00" meanMaxJamLengthInMeters="0.00" maxJamLengthInVehicles="0" maxJamLengthInMeters="0.00" jamLengthInVehiclesSum="0" jamLengthInMetersSum="0.00" meanHaltingDuration="0.00" maxHaltingDuration="0.00" haltingDurationSum="0.00" meanIntervalHaltingDuration="0.00" maxIntervalHaltingDuration="0.00" intervalHaltingDurationSum="0.00" startedHalts="0.00" meanVehicleNumber="67.10" maxVehicleNumber="69" />
   <interval begin="300.00" end="360.00" id="mainline_up_1_2" sampledSeconds="3846.74" nVehEntered="38" nVehLeft="30" nVehSeen="97" meanSpeed="12.45" meanTimeLoss="2.10" meanOccupancy="16.00" maxOccupancy="17.00" meanMaxJamLengthInVehicles="0.00" meanMaxJamLengthInMeters="0.00" maxJamLengthInVehicles="0" maxJamLengthInMeters="0.00" jamLengthInVehiclesSum="0" jamLengthInMetersSum="0.00" meanHaltingDuration="0.00" maxHaltingDuration="0.00" haltingDurationSum="0.00" meanIntervalHaltingDuration="0.00" maxIntervalHaltingDuration="0.00" intervalHaltingDurationSum="0.00" startedHalts="0.00" meanVehicleNumber="64.52" maxVehicleNumber="68" />
   <interval begin="300.00" end="360.00" id="mainline_up_2_2" sampledSeconds="2973.18" nVehEntered="27" nVehLeft="16" nVehSeen="71" meanSpeed="12.51" meanTimeLoss="1.93" meanOccupancy="12.40" maxOccupancy="14.00" meanMaxJamLengthInVehicles="0.00" meanMaxJamLengthInMeters="0.00" maxJamLengthInVehicles="0" maxJamLengthInMeters="0.00" jamLengthInVehiclesSum="0" jamLengthInMetersSum="0.00" meanHaltingDuration="0.00" maxHaltingDuration="0.00" haltingDurationSum="0.00" meanIntervalHaltingDuration="0.00" maxIntervalHaltingDuration="0.00" intervalHaltingDurationSum="0.00" startedHalts="0.00" meanVehicleNumber="49.88" maxVehicleNumber="56" />
   <interval begin="360.00" end="420.00" id="mainline_up_0_2" sampledSeconds="4279.82" nVehEntered="36" nVehLeft="30" nVehSeen="104" meanSpeed="12.96" meanTimeLoss="4.59" meanOccupancy="17.80" maxOccupancy="18.50" meanMaxJamLengthInVehicles="0.00" meanMaxJamLengthInMeters="0.00" maxJamLengthInVehicles="0" maxJamLengthInMeters="0.00" jamLengthInVehiclesSum="0" jamLengthInMetersSum="0.00" meanHaltingDuration="0.00" maxHaltingDuration="0.00" haltingDurationSum="0.00" meanIntervalHaltingDuration="0.00" maxIntervalHaltingDuration="0.00" intervalHaltingDurationSum="0.00" startedHalts="0.00" meanVehicleNumber="71.73" maxVehicleNumber="75" />
   <interval begin="360.00" end="420.00" id="mainline_up_1_2" sampledSeconds="4146.60" nVehEntered="46" nVehLeft="41" nVehSeen="113" meanSpeed="13.10" meanTimeLoss="3.80" meanOccupancy="17.24" maxOccupancy="18.00" meanMaxJamLengthInVehicles="0.00" meanMaxJamLengthInMeters="0.00" maxJamLengthInVehicles="0" maxJamLengthInMeters="0.00" jamLengthInVehiclesSum="0" jamLengthInMetersSum="0.00" meanHaltingDuration="0.00" maxHaltingDuration="0.00" haltingDurationSum="0.00" meanIntervalHaltingDuration="0.00" maxIntervalHaltingDuration="0.00" intervalHaltingDurationSum="0.00" startedHalts="0.00" meanVehicleNumber="69.55" maxVehicleNumber="73" />
   <interval begin="360.00" end="420.00" id="mainline_up_2_2" sampledSeconds="3634.35" nVehEntered="35" nVehLeft="29" nVehSeen="90" meanSpeed="13.39" meanTimeLoss="3.76" meanOccupancy="15.12" maxOccupancy="15.84" meanMaxJamLengthInVehicles="0.00" meanMaxJamLengthInMeters="0.00" maxJamLengthInVehicles="0" maxJamLengthInMeters="0.00" jamLengthInVehiclesSum="0" jamLengthInMetersSum="0.00" meanHaltingDuration="0.00" maxHaltingDuration="0.00" haltingDurationSum="0.00" meanIntervalHaltingDuration="0.00" maxIntervalHaltingDuration="0.00" intervalHaltingDurationSum="0.00" startedHalts="0.00" meanVehicleNumber="60.95" maxVehicleNumber="64" />
   <interval begin="420.00" end="480.00" id="mainline_up_0_2" sampledSeconds="4418.94" nVehEntered="27" nVehLeft="28" nVehSeen="101" meanSpeed="12.95" meanTimeLoss="2.84" meanOccupancy="18.35" maxOccupancy="18.78" meanMaxJamLengthInVehicles="0.03" meanMaxJamLengthInMeters="0.13" maxJamLengthInVehicles="1" maxJamLengthInMeters="5.00" jamLengthInVehiclesSum="2" jamLengthInMetersSum="7.68" meanHaltingDuration="1.25" maxHaltingDuration="2.00" haltingDurationSum="10.00" meanIntervalHaltingDuration="1.25" maxIntervalHaltingDuration="2.00" intervalHaltingDurationSum="10.00" startedHalts="8.00" meanVehicleNumber="74.08" maxVehicleNumber="76" />
   <interval begin="420.00" end="480.00" id="mainline_up_1_2" sampledSeconds="4344.43" nVehEntered="34" nVehLeft="33" nVehSeen="106" meanSpeed="13.14" meanTimeLoss="2.10" meanOccupancy="18.05" maxOccupancy="18.50" meanMaxJamLengthInVehicles="0.00" meanMaxJamLengthInMeters="0.00" maxJamLengthInVehicles="0" maxJamLengthInMeters="0.00" jamLengthInVehiclesSum="0" jamLengthInMetersSum="0.00" meanHaltingDuration="0.00" maxHaltingDuration="0.00" haltingDurationSum="0.00" meanIntervalHaltingDuration="0.00" maxIntervalHaltingDuration="0.00" intervalHaltingDurationSum="0.00" startedHalts="0.00" meanVehicleNumber="72.88" maxVehicleNumber="75" />
   <interval begin="420.00" end="480.00" id="mainline_up_2_2" sampledSeconds="3692.68" nVehEntered="28" nVehLeft="26" nVehSeen="89" meanSpeed="13.22" meanTimeLoss="2.01" meanOccupancy="15.36" maxOccupancy="16.00" meanMaxJamLengthInVehicles="0.00" meanMaxJamLengthInMeters="0.00" maxJamLengthInVehicles="0" maxJamLengthInMeters="0.00" jamLengthInVehiclesSum="0" jamLengthInMetersSum="0.00" meanHaltingDuration="0.00" maxHaltingDuration="0.00" haltingDurationSum="0.00" meanIntervalHaltingDuration="0.00" maxIntervalHaltingDuration="0.00" intervalHaltingDurationSum="0.00" startedHalts="0.00" meanVehicleNumber="61.90" maxVehicleNumber="64" />
   <interval begin="480.00" end="540.00" id="mainline_up_0_2" sampledSeconds="4387.36" nVehEntered="32" nVehLeft="31" nVehSeen="105" meanSpeed="12.74" meanTimeLoss="3.26" meanOccupancy="18.22" maxOccupancy="18.82" meanMaxJamLengthInVehicles="0.02" meanMaxJamLengthInMeters="0.08" maxJamLengthInVehicles="1" maxJamLengthInMeters="5.00" jamLengthInVehiclesSum="1" jamLengthInMetersSum="5.00" meanHaltingDuration="2.00" maxHaltingDuration="2.00" haltingDurationSum="2.00" meanIntervalHaltingDuration="2.00" maxIntervalHaltingDuration="2.00" intervalHaltingDurationSum="2.00" startedHalts="2.00" meanVehicleNumber="73.53" maxVehicleNumber="76" />
   <interval begin="480.00" end="540.00" id="mainline_up_1_2" sampledSeconds="4242.96" nVehEntered="38" nVehLeft="41" nVehSeen="111" meanSpeed="12.98" meanTimeLoss="2.39" meanOccupancy="17.63" maxOccupancy="18.25" meanMax